#           y       sigmaxx
          0.5       9992.92
     0.515152       9993.55
     0.530303       9994.18
     0.545455       9994.81
     0.560606       9995.44
     0.575758       9996.07
     0.590909        9996.7
     0.606061       9997.38
     0.621212       9998.12
     0.636364       9998.86
     0.651515        9999.6
     0.666667       10000.3
     0.681818       10001.1
      0.69697       10001.8
     0.712121       10002.6
     0.727273       10003.5
     0.742424       10004.3
     0.757576       10005.1
     0.772727       10005.9
     0.787879       10006.7
      0.80303       10007.6
     0.818182       10008.4
     0.833333       10009.2
     0.848485         10010
     0.863636       10010.8
     0.878788       10011.7
     0.893939       10012.5
     0.909091         10013
     0.924242       10013.4
     0.939394       10013.8
     0.954545       10014.1
     0.969697       10014.5
     0.984848       10014.9
            1       10015.2