#           y       sigmaxx
          0.5       9999.15
     0.515152       9999.26
     0.530303       9999.36
     0.545455       9999.47
     0.560606       9999.57
     0.575758       9999.67
     0.590909       9999.78
     0.606061       9999.89
     0.621212         10000
     0.636364       10000.1
     0.651515       10000.3
     0.666667       10000.4
     0.681818       10000.5
      0.69697       10000.6
     0.712121       10000.8
     0.727273       10000.9
     0.742424         10001
     0.757576       10001.1
     0.772727       10001.3
     0.787879       10001.4
      0.80303       10001.5
     0.818182       10001.6
     0.833333       10001.8
     0.848485       10001.9
     0.863636         10002
     0.878788       10002.1
     0.893939       10002.2
     0.909091       10002.3
     0.924242       10002.3
     0.939394       10002.4
     0.954545       10002.4
     0.969697       10002.5
     0.984848       10002.5
            1       10002.5