/*--------------------------------*- C++ -*----------------------------------*\
  =========                 |
  \\      /  F ield         | OpenFOAM: The Open Source CFD Toolbox
   \\    /   O peration     | Website:  https://openfoam.org
    \\  /    A nd           | Version:  11
     \\/     M anipulation  |
\*---------------------------------------------------------------------------*/
FoamFile
{
    format      ascii;
    class       volVectorField;
    location    "100";
    object      D;
}
// * * * * * * * * * * * * * * * * * * * * * * * * * * * * * * * * * * * * * //

dimensions      [0 1 0 0 0 0 0];

internalField   nonuniform List<vector> 
100
(
(2.49996e-09 -7.49967e-10 0)
(7.49988e-09 -7.49969e-10 0)
(1.24998e-08 -7.49972e-10 0)
(1.74997e-08 -7.49977e-10 0)
(2.24997e-08 -7.49984e-10 0)
(2.74996e-08 -7.49992e-10 0)
(3.24996e-08 -7.50001e-10 0)
(3.74996e-08 -7.50011e-10 0)
(4.24996e-08 -7.5002e-10 0)
(4.74996e-08 -7.50026e-10 0)
(2.49996e-09 -2.2499e-09 0)
(7.49988e-09 -2.24991e-09 0)
(1.24998e-08 -2.24992e-09 0)
(1.74997e-08 -2.24993e-09 0)
(2.24997e-08 -2.24995e-09 0)
(2.74996e-08 -2.24997e-09 0)
(3.24996e-08 -2.25e-09 0)
(3.74996e-08 -2.25003e-09 0)
(4.24996e-08 -2.25006e-09 0)
(4.74996e-08 -2.25008e-09 0)
(2.49996e-09 -3.74984e-09 0)
(7.49989e-09 -3.74985e-09 0)
(1.24998e-08 -3.74986e-09 0)
(1.74998e-08 -3.74988e-09 0)
(2.24997e-08 -3.74992e-09 0)
(2.74996e-08 -3.74996e-09 0)
(3.24996e-08 -3.75e-09 0)
(3.74996e-08 -3.75006e-09 0)
(4.24996e-08 -3.7501e-09 0)
(4.74996e-08 -3.75014e-09 0)
(2.49997e-09 -5.24978e-09 0)
(7.49991e-09 -5.24979e-09 0)
(1.24998e-08 -5.24981e-09 0)
(1.74998e-08 -5.24984e-09 0)
(2.24997e-08 -5.24988e-09 0)
(2.74997e-08 -5.24993e-09 0)
(3.24996e-08 -5.25e-09 0)
(3.74996e-08 -5.25008e-09 0)
(4.24996e-08 -5.25015e-09 0)
(4.74996e-08 -5.25021e-09 0)
(2.49998e-09 -6.74973e-09 0)
(7.49993e-09 -6.74974e-09 0)
(1.24999e-08 -6.74976e-09 0)
(1.74998e-08 -6.74979e-09 0)
(2.24998e-08 -6.74984e-09 0)
(2.74997e-08 -6.74991e-09 0)
(3.24997e-08 -6.74999e-09 0)
(3.74997e-08 -6.75009e-09 0)
(4.24997e-08 -6.7502e-09 0)
(4.74997e-08 -6.75028e-09 0)
(2.49999e-09 -8.24969e-09 0)
(7.49996e-09 -8.2497e-09 0)
(1.24999e-08 -8.24972e-09 0)
(1.74999e-08 -8.24975e-09 0)
(2.24999e-08 -8.2498e-09 0)
(2.74998e-08 -8.24987e-09 0)
(3.24998e-08 -8.24998e-09 0)
(3.74997e-08 -8.2501e-09 0)
(4.24997e-08 -8.25025e-09 0)
(4.74997e-08 -8.25037e-09 0)
(2.5e-09 -9.74966e-09 0)
(7.5e-09 -9.74967e-09 0)
(1.25e-08 -9.74969e-09 0)
(1.75e-08 -9.74972e-09 0)
(2.25e-08 -9.74976e-09 0)
(2.75e-08 -9.74984e-09 0)
(3.24999e-08 -9.74995e-09 0)
(3.74999e-08 -9.7501e-09 0)
(4.24998e-08 -9.75029e-09 0)
(4.74998e-08 -9.75048e-09 0)
(2.50001e-09 -1.12496e-08 0)
(7.50004e-09 -1.12497e-08 0)
(1.25001e-08 -1.12497e-08 0)
(1.75001e-08 -1.12497e-08 0)
(2.25001e-08 -1.12497e-08 0)
(2.75001e-08 -1.12498e-08 0)
(3.25001e-08 -1.12499e-08 0)
(3.75001e-08 -1.12501e-08 0)
(4.25e-08 -1.12503e-08 0)
(4.75e-08 -1.12506e-08 0)
(2.50002e-09 -1.27497e-08 0)
(7.50007e-09 -1.27497e-08 0)
(1.25001e-08 -1.27497e-08 0)
(1.75002e-08 -1.27497e-08 0)
(2.25002e-08 -1.27497e-08 0)
(2.75003e-08 -1.27498e-08 0)
(3.25004e-08 -1.27499e-08 0)
(3.75004e-08 -1.275e-08 0)
(4.25004e-08 -1.27503e-08 0)
(4.75004e-08 -1.27507e-08 0)
(2.50003e-09 -1.42497e-08 0)
(7.5001e-09 -1.42497e-08 0)
(1.25002e-08 -1.42497e-08 0)
(1.75002e-08 -1.42497e-08 0)
(2.25003e-08 -1.42498e-08 0)
(2.75004e-08 -1.42498e-08 0)
(3.25006e-08 -1.42499e-08 0)
(3.75007e-08 -1.425e-08 0)
(4.25009e-08 -1.42503e-08 0)
(4.7501e-08 -1.42509e-08 0)
)
;

boundaryField
{
    left
    {
        type            symmetryPlane;
    }
    right
    {
        type            tractionDisplacement;
        traction        uniform (10000 0 0);
        pressure        
        {
            type            uniform;
            value           0;
        }
        value           nonuniform List<vector> 10((4.99996e-08 -7.50027e-10 -6.32061e-32) (4.99996e-08 -2.25009e-09 -3.11092e-31) (4.99996e-08 -3.75015e-09 5.59416e-31) (4.99996e-08 -5.25022e-09 2.08168e-25) (4.99997e-08 -6.75031e-09 -1.34476e-30) (4.99997e-08 -8.25041e-09 0) (4.99998e-08 -9.75056e-09 -2.05005e-30) (5e-08 -1.12508e-08 6.93892e-26) (5.00004e-08 -1.2751e-08 1.38786e-25) (5.00011e-08 -1.42513e-08 1.3878e-25));
    }
    down
    {
        type            symmetryPlane;
    }
    up
    {
        type            tractionDisplacement;
        traction        uniform (0 0 0);
        pressure        
        {
            type            uniform;
            value           0;
        }
        value           nonuniform List<vector> 10((2.50003e-09 -1.49997e-08 6.48936e-32) (7.5001e-09 -1.49997e-08 3.19886e-31) (1.25002e-08 -1.49997e-08 -1.16302e-30) (1.75003e-08 -1.49997e-08 -4.1634e-26) (2.25004e-08 -1.49998e-08 2.60436e-30) (2.75005e-08 -1.49998e-08 -4.16342e-26) (3.25006e-08 -1.49999e-08 1.57419e-30) (3.75008e-08 -1.50001e-08 -2.08111e-26) (4.25011e-08 -1.50003e-08 -6.1774e-30) (4.75015e-08 -1.50009e-08 -2.41213e-29));
    }
    frontAndBack
    {
        type            empty;
    }
}


// ************************************************************************* //
