/*--------------------------------*- C++ -*----------------------------------*\
  =========                 |
  \\      /  F ield         | OpenFOAM: The Open Source CFD Toolbox
   \\    /   O peration     | Website:  https://openfoam.org
    \\  /    A nd           | Version:  11
     \\/     M anipulation  |
\*---------------------------------------------------------------------------*/
FoamFile
{
    format      ascii;
    class       volScalarField;
    location    "100";
    object      sigmayy;
}
// * * * * * * * * * * * * * * * * * * * * * * * * * * * * * * * * * * * * * //

dimensions      [1 -1 -2 0 0 0 0];

internalField   nonuniform List<scalar> 
100
(
0.089207
0.0851033
0.0748755
0.0587536
0.0366444
0.00907021
-0.0224117
-0.0550229
-0.0846135
-0.107134
0.087629
0.0839842
0.0747401
0.0598545
0.0388084
0.0115945
-0.02073
-0.0555361
-0.088453
-0.11486
0.0849845
0.082018
0.0743774
0.0615987
0.0425738
0.0163995
-0.0168686
-0.0553377
-0.0939698
-0.125755
0.0798302
0.0778854
0.0726942
0.0633414
0.0480303
0.0245073
-0.00917689
-0.0526471
-0.100618
-0.143891
0.0713762
0.0706127
0.0683538
0.0634924
0.0538429
0.0357145
0.00425124
-0.0440581
-0.106256
-0.17034
0.0591543
0.0594697
0.0599753
0.0598875
0.0573627
0.0480765
0.0235045
-0.025821
-0.105123
-0.206284
0.0437965
0.0447992
0.0470741
0.0505409
0.0546204
0.0556999
0.0447844
0.00416415
-0.0880878
-0.245926
0.0271713
0.0283465
0.0308338
0.0352929
0.0425377
0.0516957
0.0576285
0.0408735
-0.0469431
-0.278839
0.0123792
0.0133196
0.0148347
0.018002
0.0238268
0.0344726
0.0507926
0.0592342
0.00562531
-0.269373
0.00316564
0.00367525
0.00420543
0.00541293
0.00787998
0.0132001
0.0240332
0.0411779
0.0409343
-0.0743011
)
;

boundaryField
{
    left
    {
        type            symmetryPlane;
    }
    right
    {
        type            calculated;
        value           nonuniform List<scalar> 10(-0.106321 -0.113901 -0.124656 -0.142282 -0.167787 -0.201495 -0.238418 -0.265405 -0.257797 -0.105701);
    }
    down
    {
        type            symmetryPlane;
    }
    up
    {
        type            calculated;
        value           nonuniform List<scalar> 10(7.27596e-12 -6.36646e-12 -9.09495e-13 0 -9.09495e-13 5.45697e-12 4.09273e-12 -4.09273e-12 -1.81899e-12 -8.77662e-11);
    }
    frontAndBack
    {
        type            empty;
    }
}


// ************************************************************************* //
