/*--------------------------------*- C++ -*----------------------------------*\
  =========                 |
  \\      /  F ield         | OpenFOAM: The Open Source CFD Toolbox
   \\    /   O peration     | Website:  https://openfoam.org
    \\  /    A nd           | Version:  11
     \\/     M anipulation  |
\*---------------------------------------------------------------------------*/
FoamFile
{
    format      ascii;
    class       volScalarField;
    location    "100";
    object      sigmaxy;
}
// * * * * * * * * * * * * * * * * * * * * * * * * * * * * * * * * * * * * * //

dimensions      [1 -1 -2 0 0 0 0];

internalField   nonuniform List<scalar> 
100
(
8.61864e-08
-0.000704349
-0.00148664
-0.00249805
-0.00368798
-0.00483111
-0.00556985
-0.0054676
-0.00416917
-0.00104202
0.000784787
0.000210871
-0.000883106
-0.00309095
-0.00639225
-0.0101389
-0.0130609
-0.0136095
-0.0103076
-0.00237499
0.00179109
0.00195554
0.00116634
-0.00172513
-0.00690972
-0.013543
-0.0195305
-0.0218689
-0.0175048
-0.00426662
0.00317916
0.00523228
0.0058838
0.00345009
-0.00285982
-0.0124033
-0.0227421
-0.0291907
-0.025499
-0.00649834
0.00486336
0.00994081
0.0134546
0.0131991
0.00762096
-0.00377024
-0.0190596
-0.0320809
-0.0328983
-0.00944452
0.00654033
0.0152316
0.0227176
0.026654
0.0247941
0.014827
-0.00352408
-0.0253975
-0.036037
-0.0116859
0.0076469
0.0193521
0.0306674
0.0399934
0.044898
0.0415432
0.0261397
-0.000463414
-0.0238781
-0.0129189
0.00757405
0.0199248
0.0329592
0.0462615
0.0583791
0.0661821
0.0636644
0.0440549
0.00916424
-0.00790192
0.00570629
0.0149101
0.0254083
0.0375064
0.0515052
0.0666272
0.0789363
0.0778879
0.0520373
0.0127733
0.00139111
0.00350462
0.00607384
0.00922847
0.0133643
0.0192718
0.0272351
0.0339141
0.0325209
0.016759
)
;

boundaryField
{
    left
    {
        type            symmetryPlane;
    }
    right
    {
        type            calculated;
        value           nonuniform List<scalar> 10(-1.50885e-05 -7.47356e-05 -0.000131005 -0.000185161 -0.000246049 -0.000357637 -0.000828828 -0.00280277 -0.00992355 -0.0663218);
    }
    down
    {
        type            symmetryPlane;
    }
    up
    {
        type            calculated;
        value           nonuniform List<scalar> 10(2.41354e-05 0.0001161 0.000193083 0.000260663 0.000326419 0.000556951 0.00152503 0.00594344 0.0200682 0.0687018);
    }
    frontAndBack
    {
        type            empty;
    }
}


// ************************************************************************* //
