/*--------------------------------*- C++ -*----------------------------------*\
  =========                 |
  \\      /  F ield         | OpenFOAM: The Open Source CFD Toolbox
   \\    /   O peration     | Website:  https://openfoam.org
    \\  /    A nd           | Version:  11
     \\/     M anipulation  |
\*---------------------------------------------------------------------------*/
FoamFile
{
    format      ascii;
    class       volSymmTensorField;
    location    "100";
    object      sigma;
}
// * * * * * * * * * * * * * * * * * * * * * * * * * * * * * * * * * * * * * //

dimensions      [1 -1 -2 0 0 0 0];

internalField   nonuniform List<symmTensor> 
100
(
(9999.86 8.61864e-08 0 0.089207 0 2307.68)
(9999.87 -0.000704349 0 0.0851033 0 2307.68)
(9999.88 -0.00148664 -2.13501e-13 0.0748755 1.71513e-19 2307.68)
(9999.89 -0.00249805 1.09392e-19 0.0587536 -6.40493e-14 2307.68)
(9999.9 -0.00368798 2.13502e-13 0.0366444 -3.21541e-19 2307.68)
(9999.92 -0.00483111 0 0.00907021 0 2307.68)
(9999.94 -0.00556985 0 -0.0224117 0 2307.67)
(9999.97 -0.0054676 -2.13504e-13 -0.0550229 3.95062e-19 2307.67)
(9999.99 -0.00416917 -2.13505e-13 -0.0846135 -6.40527e-14 2307.67)
(10000 -0.00104202 3.15758e-20 -0.107134 -6.40536e-14 2307.67)
(9999.87 0.000784787 -1.01133e-19 0.087629 6.40486e-14 2307.68)
(9999.87 0.000210871 0 0.0839842 0 2307.68)
(9999.88 -0.000883106 0 0.0747401 0 2307.68)
(9999.89 -0.00309095 5.56004e-19 0.0598545 -6.40493e-14 2307.68)
(9999.9 -0.00639225 0 0.0388084 0 2307.68)
(9999.92 -0.0101389 0 0.0115945 0 2307.68)
(9999.94 -0.0130609 0 -0.02073 0 2307.67)
(9999.96 -0.0136095 4.67033e-19 -0.0555361 -6.40523e-14 2307.67)
(9999.98 -0.0103076 4.43442e-19 -0.088453 -6.40531e-14 2307.67)
(10000 -0.00237499 1.55386e-19 -0.11486 -6.40538e-14 2307.67)
(9999.88 0.00179109 2.13501e-13 0.0849845 6.40487e-14 2307.68)
(9999.88 0.00195554 2.13501e-13 0.082018 -4.36718e-19 2307.68)
(9999.89 0.00116634 0 0.0743774 0 2307.68)
(9999.89 -0.00172513 0 0.0615987 0 2307.68)
(9999.9 -0.00690972 -1.16996e-18 0.0425738 6.40498e-14 2307.68)
(9999.92 -0.013543 0 0.0163995 0 2307.68)
(9999.94 -0.0195305 2.13503e-13 -0.0168686 -2.12589e-18 2307.67)
(9999.96 -0.0218689 2.37038e-28 -0.0553377 -7.11146e-29 2307.67)
(9999.98 -0.0175048 -2.13504e-13 -0.0939698 -3.20248e-14 2307.67)
(10000 -0.00426662 -2.79608e-19 -0.125755 6.4054e-14 2307.66)
(9999.9 0.00317916 2.13502e-13 0.0798302 -6.40491e-14 2307.69)
(9999.9 0.00523228 2.13502e-13 0.0778854 -5.47617e-19 2307.69)
(9999.9 0.0058838 0 0.0726942 0 2307.69)
(9999.9 0.00345009 -2.13501e-13 0.0633414 -3.20232e-14 2307.68)
(9999.91 -0.00285982 8.7703e-28 0.0480303 -8.53866e-33 2307.68)
(9999.92 -0.0124033 2.13503e-13 0.0245073 -2.63377e-18 2307.68)
(9999.93 -0.0227421 0 -0.00917689 0 2307.67)
(9999.95 -0.0291907 1.06751e-13 -0.0526471 3.20245e-14 2307.67)
(9999.98 -0.025499 -2.13505e-13 -0.100618 2.74457e-18 2307.66)
(9999.99 -0.00649834 -1.06753e-13 -0.143891 2.52999e-18 2307.66)
(9999.93 0.00486336 3.91194e-19 0.0713762 -6.40494e-14 2307.69)
(9999.93 0.00994081 0 0.0706127 0 2307.69)
(9999.93 0.0134546 1.06751e-13 0.0683538 -5.55153e-19 2307.69)
(9999.92 0.0131991 -2.46017e-18 0.0634924 6.40495e-14 2307.69)
(9999.92 0.00762096 -1.06748e-13 0.0538429 -6.40484e-14 2307.69)
(9999.92 -0.00377024 0 0.0357145 0 2307.68)
(9999.93 -0.0190596 1.06751e-13 0.00425124 -2.00475e-18 2307.68)
(9999.94 -0.0320809 1.29077e-18 -0.0440581 -3.2026e-14 2307.67)
(9999.97 -0.0328983 -1.06753e-13 -0.106256 3.20287e-14 2307.66)
(9999.99 -0.00944452 6.75962e-19 -0.17034 -6.40549e-14 2307.65)
(9999.97 0.00654033 0 0.0591543 0 2307.7)
(9999.97 0.0152316 0 0.0594697 0 2307.7)
(9999.96 0.0227176 -2.13503e-13 0.0599753 1.10811e-18 2307.7)
(9999.95 0.026654 -8.13188e-18 0.0598875 1.60124e-13 2307.7)
(9999.94 0.0247941 2.13503e-13 0.0573627 -2.64705e-18 2307.69)
(9999.93 0.014827 4.55919e-18 0.0480765 -6.40498e-14 2307.69)
(9999.92 -0.00352408 1.06751e-13 0.0235045 -2.45483e-18 2307.68)
(9999.93 -0.0253975 2.19262e-18 -0.025821 -3.20257e-14 2307.67)
(9999.95 -0.036037 -1.06752e-13 -0.105123 2.87566e-18 2307.66)
(9999.98 -0.0116859 0 -0.206284 0 2307.64)
(10000 0.0076469 0 0.0437965 0 2307.71)
(10000 0.0193521 0 0.0447992 0 2307.7)
(10000 0.0306674 -4.27006e-13 0.0470741 -6.40483e-14 2307.7)
(10000 0.0399934 -9.956e-28 0.0505409 7.2533e-28 2307.7)
(9999.98 0.044898 6.40516e-13 0.0546204 -6.40577e-14 2307.7)
(9999.96 0.0415432 3.09055e-18 0.0556999 -3.20249e-14 2307.7)
(9999.93 0.0261397 3.51481e-18 0.0447844 -3.2025e-14 2307.69)
(9999.91 -0.000463414 -3.64584e-18 0.00416415 3.20253e-14 2307.67)
(9999.93 -0.0238781 -2.13497e-13 -0.0880878 -6.40446e-14 2307.66)
(9999.97 -0.0129189 1.0283e-18 -0.245926 -3.20282e-14 2307.63)
(10000.1 0.00757405 -5.1573e-19 0.0271713 6.40511e-14 2307.71)
(10000.1 0.0199248 2.13505e-13 0.0283465 -4.75862e-19 2307.71)
(10000.1 0.0329592 -2.13505e-13 0.0308338 8.97385e-19 2307.71)
(10000.1 0.0462615 4.01996e-18 0.0352929 -6.40509e-14 2307.71)
(10000 0.0583791 3.20258e-13 0.0425377 -3.42969e-18 2307.71)
(10000 0.0661821 -1.06752e-13 0.0516957 1.81098e-18 2307.71)
(9999.98 0.0636644 -1.06752e-13 0.0576285 2.86183e-18 2307.7)
(9999.94 0.0440549 1.06751e-13 0.0408735 -4.32824e-18 2307.69)
(9999.92 0.00916424 1.06764e-13 -0.0469431 -6.40576e-14 2307.66)
(9999.96 -0.00790192 -3.55842e-14 -0.278839 6.0531e-18 2307.62)
(10000.1 0.00570629 2.13506e-13 0.0123792 6.40516e-14 2307.72)
(10000.1 0.0149101 2.13507e-13 0.0133196 -4.53762e-19 2307.72)
(10000.1 0.0254083 -2.13509e-13 0.0148347 6.40526e-14 2307.72)
(10000.1 0.0375064 -3.39728e-18 0.018002 6.40517e-14 2307.72)
(10000.1 0.0515052 4.27009e-13 0.0238268 6.40476e-14 2307.73)
(10000.1 0.0666272 -3.42866e-18 0.0344726 3.20257e-14 2307.73)
(10000.1 0.0789363 -4.8363e-18 0.0507926 3.20255e-14 2307.73)
(10000.1 0.0778879 2.13512e-13 0.0592342 -3.20344e-14 2307.72)
(9999.99 0.0520373 -2.13504e-13 0.00562531 1.51444e-17 2307.69)
(9999.96 0.0127733 -7.11718e-14 -0.269373 3.20496e-14 2307.62)
(10000.1 0.00139111 2.13507e-13 0.00316564 -3.1939e-20 2307.72)
(10000.1 0.00350462 2.13507e-13 0.00367525 -1.57599e-19 2307.72)
(10000.1 0.00607384 -4.27015e-13 0.00420543 5.74985e-19 2307.73)
(10000.2 0.00922847 -1.86623e-18 0.00541293 2.13507e-14 2307.73)
(10000.2 0.0133643 4.27017e-13 0.00787998 -1.29933e-18 2307.74)
(10000.2 0.0192718 -4.02167e-18 0.0132001 2.13508e-14 2307.75)
(10000.3 0.0272351 1.06755e-13 0.0240332 -7.64948e-19 2307.76)
(10000.3 0.0339141 2.13506e-13 0.0411779 1.06727e-14 2307.78)
(10000.3 0.0325209 -1.06756e-13 0.0409343 2.61089e-18 2307.78)
(10000.1 0.016759 -7.1169e-14 -0.0743011 8.5562e-18 2307.7)
)
;

boundaryField
{
    left
    {
        type            symmetryPlane;
    }
    right
    {
        type            calculated;
        value           nonuniform List<symmTensor> 10((10000 -1.50885e-05 -8.37578e-22 -0.106321 -6.40536e-14 2307.67) (10000 -7.47356e-05 -4.14866e-21 -0.113901 -6.40538e-14 2307.67) (10000 -0.000131005 7.27223e-21 -0.124656 6.4054e-14 2307.66) (10000 -0.000185161 5.65429e-20 -0.142282 2.52999e-18 2307.66) (10000 -0.000246049 -1.36585e-20 -0.167787 -6.40549e-14 2307.65) (10000 -0.000357637 0 -0.201495 0 2307.65) (10000 -0.000828828 -2.30046e-20 -0.238418 -3.20282e-14 2307.64) (10000 -0.00280277 4.99557e-20 -0.265405 6.0531e-18 2307.63) (10000 -0.00992355 3.95373e-19 -0.257797 3.20496e-14 2307.63) (10000 -0.0663218 1.43271e-19 -0.105701 8.5562e-18 2307.67));
    }
    down
    {
        type            symmetryPlane;
    }
    up
    {
        type            calculated;
        value           nonuniform List<symmTensor> 10((10000.1 2.41354e-05 2.13507e-13 7.27596e-12 1.33979e-21 2307.72) (10000.1 0.0001161 2.13507e-13 -6.36646e-12 6.44486e-21 2307.72) (10000.1 0.000193083 -4.27015e-13 -9.09495e-13 -2.14365e-20 2307.73) (10000.2 0.000260663 -1.86623e-18 0 -2.28797e-20 2307.73) (10000.2 0.000326419 4.27017e-13 -9.09495e-13 3.62398e-20 2307.74) (10000.2 0.000556951 -4.02167e-18 5.45697e-12 -2.9807e-20 2307.75) (10000.3 0.00152503 1.06755e-13 4.09273e-12 4.2328e-20 2307.76) (10000.3 0.00594344 2.13506e-13 -4.09273e-12 3.20876e-19 2307.77) (10000.3 0.0200682 -1.06756e-13 -1.81899e-12 -5.57005e-19 2307.77) (10000.1 0.0687018 -7.1169e-14 -8.77662e-11 -3.81372e-18 2307.72));
    }
    frontAndBack
    {
        type            empty;
    }
}


// ************************************************************************* //
