/*--------------------------------*- C++ -*----------------------------------*\
  =========                 |
  \\      /  F ield         | OpenFOAM: The Open Source CFD Toolbox
   \\    /   O peration     | Website:  https://openfoam.org
    \\  /    A nd           | Version:  11
     \\/     M anipulation  |
\*---------------------------------------------------------------------------*/
FoamFile
{
    format      ascii;
    class       volScalarField;
    location    "100";
    object      sigmaxx;
}
// * * * * * * * * * * * * * * * * * * * * * * * * * * * * * * * * * * * * * //

dimensions      [1 -1 -2 0 0 0 0];

internalField   nonuniform List<scalar> 
100
(
9999.86
9999.87
9999.88
9999.89
9999.9
9999.92
9999.94
9999.97
9999.99
10000
9999.87
9999.87
9999.88
9999.89
9999.9
9999.92
9999.94
9999.96
9999.98
10000
9999.88
9999.88
9999.89
9999.89
9999.9
9999.92
9999.94
9999.96
9999.98
10000
9999.9
9999.9
9999.9
9999.9
9999.91
9999.92
9999.93
9999.95
9999.98
9999.99
9999.93
9999.93
9999.93
9999.92
9999.92
9999.92
9999.93
9999.94
9999.97
9999.99
9999.97
9999.97
9999.96
9999.95
9999.94
9999.93
9999.92
9999.93
9999.95
9999.98
10000
10000
10000
10000
9999.98
9999.96
9999.93
9999.91
9999.93
9999.97
10000.1
10000.1
10000.1
10000.1
10000
10000
9999.98
9999.94
9999.92
9999.96
10000.1
10000.1
10000.1
10000.1
10000.1
10000.1
10000.1
10000.1
9999.99
9999.96
10000.1
10000.1
10000.1
10000.2
10000.2
10000.2
10000.3
10000.3
10000.3
10000.1
)
;

boundaryField
{
    left
    {
        type            symmetryPlane;
    }
    right
    {
        type            calculated;
        value           uniform 10000;
    }
    down
    {
        type            symmetryPlane;
    }
    up
    {
        type            calculated;
        value           nonuniform List<scalar> 10(10000.1 10000.1 10000.1 10000.2 10000.2 10000.2 10000.3 10000.3 10000.3 10000.1);
    }
    frontAndBack
    {
        type            empty;
    }
}


// ************************************************************************* //
