/*--------------------------------*- C++ -*----------------------------------*\
  =========                 |
  \\      /  F ield         | OpenFOAM: The Open Source CFD Toolbox
   \\    /   O peration     | Website:  https://openfoam.org
    \\  /    A nd           | Version:  11
     \\/     M anipulation  |
\*---------------------------------------------------------------------------*/
FoamFile
{
    format      ascii;
    class       volScalarField;
    location    "100";
    object      sigmayz;
}
// * * * * * * * * * * * * * * * * * * * * * * * * * * * * * * * * * * * * * //

dimensions      [1 -1 -2 0 0 0 0];

internalField   nonuniform List<scalar> 
100
(
0
0
1.71513e-19
-6.40493e-14
-3.21541e-19
0
0
3.95062e-19
-6.40527e-14
-6.40536e-14
6.40486e-14
0
0
-6.40493e-14
0
0
0
-6.40523e-14
-6.40531e-14
-6.40538e-14
6.40487e-14
-4.36718e-19
0
0
6.40498e-14
0
-2.12589e-18
-7.11146e-29
-3.20248e-14
6.4054e-14
-6.40491e-14
-5.47617e-19
0
-3.20232e-14
-8.53866e-33
-2.63377e-18
0
3.20245e-14
2.74457e-18
2.52999e-18
-6.40494e-14
0
-5.55153e-19
6.40495e-14
-6.40484e-14
0
-2.00475e-18
-3.2026e-14
3.20287e-14
-6.40549e-14
0
0
1.10811e-18
1.60124e-13
-2.64705e-18
-6.40498e-14
-2.45483e-18
-3.20257e-14
2.87566e-18
0
0
0
-6.40483e-14
7.2533e-28
-6.40577e-14
-3.20249e-14
-3.2025e-14
3.20253e-14
-6.40446e-14
-3.20282e-14
6.40511e-14
-4.75862e-19
8.97385e-19
-6.40509e-14
-3.42969e-18
1.81098e-18
2.86183e-18
-4.32824e-18
-6.40576e-14
6.0531e-18
6.40516e-14
-4.53762e-19
6.40526e-14
6.40517e-14
6.40476e-14
3.20257e-14
3.20255e-14
-3.20344e-14
1.51444e-17
3.20496e-14
-3.1939e-20
-1.57599e-19
5.74985e-19
2.13507e-14
-1.29933e-18
2.13508e-14
-7.64948e-19
1.06727e-14
2.61089e-18
8.5562e-18
)
;

boundaryField
{
    left
    {
        type            symmetryPlane;
    }
    right
    {
        type            calculated;
        value           nonuniform List<scalar> 10(-6.40536e-14 -6.40538e-14 6.4054e-14 2.52999e-18 -6.40549e-14 0 -3.20282e-14 6.0531e-18 3.20496e-14 8.5562e-18);
    }
    down
    {
        type            symmetryPlane;
    }
    up
    {
        type            calculated;
        value           nonuniform List<scalar> 10(1.33979e-21 6.44486e-21 -2.14365e-20 -2.28797e-20 3.62398e-20 -2.9807e-20 4.2328e-20 3.20876e-19 -5.57005e-19 -3.81372e-18);
    }
    frontAndBack
    {
        type            empty;
    }
}


// ************************************************************************* //
