/*--------------------------------*- C++ -*----------------------------------*\
  =========                 |
  \\      /  F ield         | OpenFOAM: The Open Source CFD Toolbox
   \\    /   O peration     | Website:  https://openfoam.org
    \\  /    A nd           | Version:  11
     \\/     M anipulation  |
\*---------------------------------------------------------------------------*/
FoamFile
{
    format      ascii;
    class       volScalarField;
    location    "100";
    object      sigmazz;
}
// * * * * * * * * * * * * * * * * * * * * * * * * * * * * * * * * * * * * * //

dimensions      [1 -1 -2 0 0 0 0];

internalField   nonuniform List<scalar> 
100
(
2307.68
2307.68
2307.68
2307.68
2307.68
2307.68
2307.67
2307.67
2307.67
2307.67
2307.68
2307.68
2307.68
2307.68
2307.68
2307.68
2307.67
2307.67
2307.67
2307.67
2307.68
2307.68
2307.68
2307.68
2307.68
2307.68
2307.67
2307.67
2307.67
2307.66
2307.69
2307.69
2307.69
2307.68
2307.68
2307.68
2307.67
2307.67
2307.66
2307.66
2307.69
2307.69
2307.69
2307.69
2307.69
2307.68
2307.68
2307.67
2307.66
2307.65
2307.7
2307.7
2307.7
2307.7
2307.69
2307.69
2307.68
2307.67
2307.66
2307.64
2307.71
2307.7
2307.7
2307.7
2307.7
2307.7
2307.69
2307.67
2307.66
2307.63
2307.71
2307.71
2307.71
2307.71
2307.71
2307.71
2307.7
2307.69
2307.66
2307.62
2307.72
2307.72
2307.72
2307.72
2307.73
2307.73
2307.73
2307.72
2307.69
2307.62
2307.72
2307.72
2307.73
2307.73
2307.74
2307.75
2307.76
2307.78
2307.78
2307.7
)
;

boundaryField
{
    left
    {
        type            symmetryPlane;
    }
    right
    {
        type            calculated;
        value           nonuniform List<scalar> 10(2307.67 2307.67 2307.66 2307.66 2307.65 2307.65 2307.64 2307.63 2307.63 2307.67);
    }
    down
    {
        type            symmetryPlane;
    }
    up
    {
        type            calculated;
        value           nonuniform List<scalar> 10(2307.72 2307.72 2307.73 2307.73 2307.74 2307.75 2307.76 2307.77 2307.77 2307.72);
    }
    frontAndBack
    {
        type            empty;
    }
}


// ************************************************************************* //
