/*--------------------------------*- C++ -*----------------------------------*\
  =========                 |
  \\      /  F ield         | OpenFOAM: The Open Source CFD Toolbox
   \\    /   O peration     | Website:  https://openfoam.org
    \\  /    A nd           | Version:  11
     \\/     M anipulation  |
\*---------------------------------------------------------------------------*/
FoamFile
{
    format      ascii;
    class       volScalarField;
    location    "100";
    object      sigmaxz;
}
// * * * * * * * * * * * * * * * * * * * * * * * * * * * * * * * * * * * * * //

dimensions      [1 -1 -2 0 0 0 0];

internalField   nonuniform List<scalar> 
100
(
0
0
-2.13501e-13
1.09392e-19
2.13502e-13
0
0
-2.13504e-13
-2.13505e-13
3.15758e-20
-1.01133e-19
0
0
5.56004e-19
0
0
0
4.67033e-19
4.43442e-19
1.55386e-19
2.13501e-13
2.13501e-13
0
0
-1.16996e-18
0
2.13503e-13
2.37038e-28
-2.13504e-13
-2.79608e-19
2.13502e-13
2.13502e-13
0
-2.13501e-13
8.7703e-28
2.13503e-13
0
1.06751e-13
-2.13505e-13
-1.06753e-13
3.91194e-19
0
1.06751e-13
-2.46017e-18
-1.06748e-13
0
1.06751e-13
1.29077e-18
-1.06753e-13
6.75962e-19
0
0
-2.13503e-13
-8.13188e-18
2.13503e-13
4.55919e-18
1.06751e-13
2.19262e-18
-1.06752e-13
0
0
0
-4.27006e-13
-9.956e-28
6.40516e-13
3.09055e-18
3.51481e-18
-3.64584e-18
-2.13497e-13
1.0283e-18
-5.1573e-19
2.13505e-13
-2.13505e-13
4.01996e-18
3.20258e-13
-1.06752e-13
-1.06752e-13
1.06751e-13
1.06764e-13
-3.55842e-14
2.13506e-13
2.13507e-13
-2.13509e-13
-3.39728e-18
4.27009e-13
-3.42866e-18
-4.8363e-18
2.13512e-13
-2.13504e-13
-7.11718e-14
2.13507e-13
2.13507e-13
-4.27015e-13
-1.86623e-18
4.27017e-13
-4.02167e-18
1.06755e-13
2.13506e-13
-1.06756e-13
-7.1169e-14
)
;

boundaryField
{
    left
    {
        type            symmetryPlane;
    }
    right
    {
        type            calculated;
        value           nonuniform List<scalar> 10(-8.37578e-22 -4.14866e-21 7.27223e-21 5.65429e-20 -1.36585e-20 0 -2.30046e-20 4.99557e-20 3.95373e-19 1.43271e-19);
    }
    down
    {
        type            symmetryPlane;
    }
    up
    {
        type            calculated;
        value           nonuniform List<scalar> 10(2.13507e-13 2.13507e-13 -4.27015e-13 -1.86623e-18 4.27017e-13 -4.02167e-18 1.06755e-13 2.13506e-13 -1.06756e-13 -7.1169e-14);
    }
    frontAndBack
    {
        type            empty;
    }
}


// ************************************************************************* //
