/*--------------------------------*- C++ -*----------------------------------*\
  =========                 |
  \\      /  F ield         | OpenFOAM: The Open Source CFD Toolbox
   \\    /   O peration     | Website:  https://openfoam.org
    \\  /    A nd           | Version:  11
     \\/     M anipulation  |
\*---------------------------------------------------------------------------*/
FoamFile
{
    format      ascii;
    class       volVectorField;
    location    "40";
    object      D;
}
// * * * * * * * * * * * * * * * * * * * * * * * * * * * * * * * * * * * * * //

dimensions      [0 1 0 0 0 0 0];

internalField   nonuniform List<vector> 
100
(
(2.49924e-09 -7.49269e-10 0)
(7.49774e-09 -7.49298e-10 0)
(1.24963e-08 -7.49361e-10 0)
(1.7495e-08 -7.49463e-10 0)
(2.24938e-08 -7.49604e-10 0)
(2.74928e-08 -7.49783e-10 0)
(3.24922e-08 -7.49992e-10 0)
(3.74918e-08 -7.50216e-10 0)
(4.24918e-08 -7.50429e-10 0)
(4.7492e-08 -7.50605e-10 0)
(2.49927e-09 -2.24783e-09 0)
(7.49782e-09 -2.24791e-09 0)
(1.24964e-08 -2.2481e-09 0)
(1.74951e-08 -2.2484e-09 0)
(2.2494e-08 -2.24881e-09 0)
(2.74931e-08 -2.24934e-09 0)
(3.24924e-08 -2.24997e-09 0)
(3.7492e-08 -2.25064e-09 0)
(4.24919e-08 -2.25131e-09 0)
(4.74922e-08 -2.25187e-09 0)
(2.49933e-09 -3.74644e-09 0)
(7.49801e-09 -3.74657e-09 0)
(1.24967e-08 -3.74687e-09 0)
(1.74955e-08 -3.74735e-09 0)
(2.24944e-08 -3.74802e-09 0)
(2.74935e-08 -3.74889e-09 0)
(3.24928e-08 -3.74993e-09 0)
(3.74924e-08 -3.75107e-09 0)
(4.24924e-08 -3.75221e-09 0)
(4.74926e-08 -3.75321e-09 0)
(2.49943e-09 -5.24516e-09 0)
(7.49831e-09 -5.24533e-09 0)
(1.24972e-08 -5.24571e-09 0)
(1.74962e-08 -5.24633e-09 0)
(2.24952e-08 -5.24722e-09 0)
(2.74943e-08 -5.2484e-09 0)
(3.24936e-08 -5.24985e-09 0)
(3.74932e-08 -5.25148e-09 0)
(4.24931e-08 -5.25315e-09 0)
(4.74933e-08 -5.25465e-09 0)
(2.49958e-09 -6.74402e-09 0)
(7.49874e-09 -6.74421e-09 0)
(1.24979e-08 -6.74466e-09 0)
(1.74971e-08 -6.74538e-09 0)
(2.24962e-08 -6.74643e-09 0)
(2.74955e-08 -6.74786e-09 0)
(3.24948e-08 -6.74968e-09 0)
(3.74943e-08 -6.75184e-09 0)
(4.24941e-08 -6.75412e-09 0)
(4.74943e-08 -6.75624e-09 0)
(2.49976e-09 -8.2431e-09 0)
(7.49929e-09 -8.2433e-09 0)
(1.24988e-08 -8.24377e-09 0)
(1.74983e-08 -8.24454e-09 0)
(2.24977e-08 -8.24567e-09 0)
(2.74971e-08 -8.24726e-09 0)
(3.24965e-08 -8.24939e-09 0)
(3.74959e-08 -8.25206e-09 0)
(4.24956e-08 -8.2551e-09 0)
(4.74958e-08 -8.25804e-09 0)
(2.49998e-09 -9.74244e-09 0)
(7.49994e-09 -9.74264e-09 0)
(1.24999e-08 -9.74311e-09 0)
(1.74998e-08 -9.74387e-09 0)
(2.24996e-08 -9.74501e-09 0)
(2.74993e-08 -9.74664e-09 0)
(3.24989e-08 -9.74894e-09 0)
(3.74983e-08 -9.75207e-09 0)
(4.24978e-08 -9.75598e-09 0)
(4.74978e-08 -9.76013e-09 0)
(2.50022e-09 -1.12421e-08 0)
(7.50065e-09 -1.12423e-08 0)
(1.25011e-08 -1.12427e-08 0)
(1.75015e-08 -1.12435e-08 0)
(2.25019e-08 -1.12445e-08 0)
(2.75021e-08 -1.12461e-08 0)
(3.25022e-08 -1.12484e-08 0)
(3.75018e-08 -1.12517e-08 0)
(4.25012e-08 -1.12566e-08 0)
(4.7501e-08 -1.12626e-08 0)
(2.50045e-09 -1.27421e-08 0)
(7.50135e-09 -1.27423e-08 0)
(1.25023e-08 -1.27427e-08 0)
(1.75033e-08 -1.27434e-08 0)
(2.25043e-08 -1.27444e-08 0)
(2.75053e-08 -1.27458e-08 0)
(3.25062e-08 -1.27479e-08 0)
(3.75069e-08 -1.27511e-08 0)
(4.25069e-08 -1.27566e-08 0)
(4.75067e-08 -1.27655e-08 0)
(2.50063e-09 -1.42423e-08 0)
(7.50195e-09 -1.42425e-08 0)
(1.25033e-08 -1.4243e-08 0)
(1.75048e-08 -1.42437e-08 0)
(2.25064e-08 -1.42447e-08 0)
(2.75082e-08 -1.42461e-08 0)
(3.25103e-08 -1.4248e-08 0)
(3.75128e-08 -1.42509e-08 0)
(4.25157e-08 -1.42564e-08 0)
(4.75186e-08 -1.42683e-08 0)
)
;

boundaryField
{
    left
    {
        type            symmetryPlane;
    }
    right
    {
        type            tractionDisplacement;
        traction        uniform (10000 0 0);
        pressure        
        {
            type            uniform;
            value           0;
        }
        value           nonuniform List<vector> 10((4.99922e-08 -7.50647e-10 -2.34881e-30) (4.99924e-08 -2.25209e-09 -1.19095e-29) (4.99928e-08 -3.75361e-09 2.18465e-29) (4.99936e-08 -5.25525e-09 2.08189e-25) (4.99946e-08 -6.75709e-09 -4.70751e-29) (4.99961e-08 -8.25924e-09 0) (4.99982e-08 -9.76188e-09 -4.84358e-29) (5.00014e-08 -1.12654e-08 6.93973e-26) (5.00071e-08 -1.27708e-08 1.38944e-25) (5.00188e-08 -1.4279e-08 1.38817e-25));
    }
    down
    {
        type            symmetryPlane;
    }
    up
    {
        type            tractionDisplacement;
        traction        uniform (0 0 0);
        pressure        
        {
            type            uniform;
            value           0;
        }
        value           nonuniform List<vector> 10((2.50067e-09 -1.49926e-08 2.49531e-30) (7.50217e-09 -1.49928e-08 1.24448e-29) (1.25037e-08 -1.49932e-08 -4.48549e-29) (1.75054e-08 -1.4994e-08 -4.16487e-26) (2.25072e-08 -1.4995e-08 9.04165e-29) (2.75093e-08 -1.49964e-08 -4.16509e-26) (3.25119e-08 -1.49983e-08 4.43132e-29) (3.75155e-08 -1.50013e-08 -2.06763e-26) (4.2521e-08 -1.50069e-08 -1.46461e-28) (4.75293e-08 -1.50185e-08 -5.93024e-28));
    }
    frontAndBack
    {
        type            empty;
    }
}


// ************************************************************************* //
