/*--------------------------------*- C++ -*----------------------------------*\
  =========                 |
  \\      /  F ield         | OpenFOAM: The Open Source CFD Toolbox
   \\    /   O peration     | Website:  https://openfoam.org
    \\  /    A nd           | Version:  11
     \\/     M anipulation  |
\*---------------------------------------------------------------------------*/
FoamFile
{
    format      ascii;
    class       volScalarField;
    location    "40";
    object      sigmaEq;
}
// * * * * * * * * * * * * * * * * * * * * * * * * * * * * * * * * * * * * * //

dimensions      [1 -1 -2 0 0 0 0];

internalField   nonuniform List<scalar> 
100
(
9065.31
9065.44
9065.69
9066.1
9066.68
9067.42
9068.29
9069.23
9070.15
9070.91
9065.43
9065.55
9065.78
9066.16
9066.7
9067.41
9068.27
9069.22
9070.17
9071.01
9065.7
9065.8
9065.99
9066.3
9066.76
9067.4
9068.22
9069.18
9070.2
9071.13
9066.14
9066.2
9066.32
9066.53
9066.87
9067.38
9068.12
9069.09
9070.22
9071.3
9066.76
9066.78
9066.83
9066.92
9067.08
9067.39
9067.96
9068.9
9070.18
9071.55
9067.56
9067.55
9067.54
9067.5
9067.47
9067.51
9067.79
9068.56
9069.99
9071.86
9068.51
9068.5
9068.45
9068.35
9068.17
9067.92
9067.77
9068.09
9069.54
9072.24
9069.56
9069.55
9069.53
9069.46
9069.27
9068.89
9068.32
9067.92
9068.8
9072.6
9070.58
9070.6
9070.66
9070.71
9070.71
9070.55
9070.07
9069.18
9068.87
9072.87
9071.4
9071.52
9071.65
9071.85
9072.14
9072.56
9073.1
9073.69
9074.01
9072.17
)
;

boundaryField
{
    left
    {
        type            symmetryPlane;
    }
    right
    {
        type            calculated;
        value           nonuniform List<scalar> 10(9070.98 9071.1 9071.22 9071.42 9071.69 9072.07 9072.57 9073.15 9073.43 9070.92);
    }
    down
    {
        type            symmetryPlane;
    }
    up
    {
        type            calculated;
        value           nonuniform List<scalar> 10(9071.45 9071.57 9071.71 9071.92 9072.23 9072.7 9073.33 9074.08 9074.41 9071.32);
    }
    frontAndBack
    {
        type            empty;
    }
}


// ************************************************************************* //
