/*--------------------------------*- C++ -*----------------------------------*\
  =========                 |
  \\      /  F ield         | OpenFOAM: The Open Source CFD Toolbox
   \\    /   O peration     | Website:  https://openfoam.org
    \\  /    A nd           | Version:  11
     \\/     M anipulation  |
\*---------------------------------------------------------------------------*/
FoamFile
{
    format      ascii;
    class       volScalarField;
    location    "40";
    object      sigmaxx;
}
// * * * * * * * * * * * * * * * * * * * * * * * * * * * * * * * * * * * * * //

dimensions      [1 -1 -2 0 0 0 0];

internalField   nonuniform List<scalar> 
100
(
9997.63
9997.7
9997.8
9997.96
9998.19
9998.49
9998.86
9999.26
9999.65
9999.96
9997.73
9997.79
9997.87
9998.02
9998.23
9998.51
9998.86
9999.24
9999.63
9999.95
9997.95
9998
9998.06
9998.16
9998.32
9998.54
9998.85
9999.21
9999.6
9999.94
9998.32
9998.34
9998.36
9998.4
9998.47
9998.61
9998.84
9999.16
9999.55
9999.91
9998.83
9998.83
9998.81
9998.77
9998.74
9998.74
9998.83
9999.06
9999.45
9999.88
9999.48
9999.46
9999.41
9999.31
9999.18
9999.01
9998.89
9998.95
9999.28
9999.79
10000.2
10000.2
10000.2
10000.1
9999.87
9999.56
9999.18
9998.89
9999.03
9999.62
10001.1
10001.1
10001.1
10001
10000.9
10000.6
10000
9999.3
9998.87
9999.3
10001.9
10001.9
10002
10002.1
10002.2
10002.1
10001.9
10001.1
9999.88
9999.27
10002.6
10002.7
10002.9
10003.1
10003.4
10004
10004.7
10005.6
10006
10001.9
)
;

boundaryField
{
    left
    {
        type            symmetryPlane;
    }
    right
    {
        type            calculated;
        value           nonuniform List<scalar> 10(10000.1 10000.1 10000.1 10000.1 10000.1 10000.1 10000.1 10000.1 10000.1 10000);
    }
    down
    {
        type            symmetryPlane;
    }
    up
    {
        type            calculated;
        value           nonuniform List<scalar> 10(10002.5 10002.7 10002.8 10003 10003.4 10003.9 10004.6 10005.4 10005.8 10002.4);
    }
    frontAndBack
    {
        type            empty;
    }
}


// ************************************************************************* //
