/*--------------------------------*- C++ -*----------------------------------*\
  =========                 |
  \\      /  F ield         | OpenFOAM: The Open Source CFD Toolbox
   \\    /   O peration     | Website:  https://openfoam.org
    \\  /    A nd           | Version:  11
     \\/     M anipulation  |
\*---------------------------------------------------------------------------*/
FoamFile
{
    format      ascii;
    class       volScalarField;
    location    "40";
    object      sigmayz;
}
// * * * * * * * * * * * * * * * * * * * * * * * * * * * * * * * * * * * * * //

dimensions      [1 -1 -2 0 0 0 0];

internalField   nonuniform List<scalar> 
100
(
0
0
3.52761e-18
-6.40056e-14
-6.83127e-18
0
0
9.33082e-18
-6.408e-14
-6.41038e-14
6.3991e-14
0
0
-6.40062e-14
0
0
0
-6.40696e-14
-6.40893e-14
-6.4107e-14
6.39924e-14
-9.11068e-18
0
0
6.40174e-14
0
-4.66234e-17
-7.1185e-29
-3.19997e-14
6.41106e-14
-6.4002e-14
-1.17944e-17
0
-3.19723e-14
-1.81418e-31
-5.59721e-17
0
3.19985e-14
6.77086e-17
8.28757e-17
-6.40073e-14
0
-1.24443e-17
6.4013e-14
-6.39917e-14
0
-4.24155e-17
-3.20319e-14
3.20935e-14
-6.41238e-14
0
0
2.63922e-17
1.60048e-13
-5.82584e-17
-6.40252e-14
-5.12393e-17
-3.20282e-14
6.38045e-17
0
0
0
-6.3977e-14
7.25267e-28
-6.42045e-14
-3.20132e-14
-3.20147e-14
3.20221e-14
-6.39108e-14
-3.20743e-14
6.40435e-14
-1.38623e-17
2.5243e-17
-6.40416e-14
-8.39766e-17
4.07613e-17
6.0197e-17
-8.77147e-17
-6.4181e-14
1.23182e-16
6.40539e-14
-1.36099e-17
6.40813e-14
6.40565e-14
6.39517e-14
3.20256e-14
3.20214e-14
-3.22029e-14
3.05973e-16
3.25163e-14
-2.38613e-19
-1.17363e-18
4.18763e-18
2.13531e-14
-8.5759e-18
2.13539e-14
-5.68469e-18
1.06498e-14
3.5886e-17
1.69735e-16
)
;

boundaryField
{
    left
    {
        type            symmetryPlane;
    }
    right
    {
        type            calculated;
        value           nonuniform List<scalar> 10(-6.41038e-14 -6.4107e-14 6.41106e-14 8.28757e-17 -6.41238e-14 0 -3.20743e-14 1.23182e-16 3.25163e-14 1.69735e-16);
    }
    down
    {
        type            symmetryPlane;
    }
    up
    {
        type            calculated;
        value           nonuniform List<scalar> 10(1.04103e-18 5.20833e-18 -1.88149e-17 -5.18254e-18 3.77915e-17 -5.51751e-18 1.704e-17 4.65446e-17 -3.92221e-17 -1.3438e-16);
    }
    frontAndBack
    {
        type            empty;
    }
}


// ************************************************************************* //
