/*--------------------------------*- C++ -*----------------------------------*\
  =========                 |
  \\      /  F ield         | OpenFOAM: The Open Source CFD Toolbox
   \\    /   O peration     | Website:  https://openfoam.org
    \\  /    A nd           | Version:  11
     \\/     M anipulation  |
\*---------------------------------------------------------------------------*/
FoamFile
{
    format      ascii;
    class       volScalarField;
    location    "40";
    object      sigmazz;
}
// * * * * * * * * * * * * * * * * * * * * * * * * * * * * * * * * * * * * * //

dimensions      [1 -1 -2 0 0 0 0];

internalField   nonuniform List<scalar> 
100
(
2307.65
2307.65
2307.62
2307.57
2307.51
2307.44
2307.36
2307.27
2307.19
2307.11
2307.66
2307.66
2307.63
2307.59
2307.53
2307.45
2307.36
2307.27
2307.17
2307.07
2307.7
2307.69
2307.66
2307.62
2307.55
2307.47
2307.38
2307.26
2307.15
2307.03
2307.75
2307.74
2307.71
2307.67
2307.6
2307.51
2307.4
2307.26
2307.12
2306.97
2307.82
2307.81
2307.78
2307.74
2307.67
2307.58
2307.45
2307.28
2307.08
2306.87
2307.9
2307.89
2307.87
2307.83
2307.77
2307.68
2307.53
2307.32
2307.05
2306.73
2308
2307.99
2307.98
2307.96
2307.91
2307.83
2307.68
2307.44
2307.06
2306.53
2308.1
2308.1
2308.11
2308.1
2308.09
2308.05
2307.94
2307.7
2307.2
2306.25
2308.2
2308.22
2308.24
2308.27
2308.3
2308.34
2308.34
2308.21
2307.7
2306.16
2308.29
2308.33
2308.36
2308.42
2308.51
2308.65
2308.87
2309.16
2309.25
2307.7
)
;

boundaryField
{
    left
    {
        type            symmetryPlane;
    }
    right
    {
        type            calculated;
        value           nonuniform List<scalar> 10(2307.15 2307.11 2307.08 2307.02 2306.94 2306.82 2306.67 2306.49 2306.4 2307.15);
    }
    down
    {
        type            symmetryPlane;
    }
    up
    {
        type            calculated;
        value           nonuniform List<scalar> 10(2308.26 2308.29 2308.32 2308.38 2308.45 2308.57 2308.73 2308.91 2309 2308.24);
    }
    frontAndBack
    {
        type            empty;
    }
}


// ************************************************************************* //
