/*--------------------------------*- C++ -*----------------------------------*\
  =========                 |
  \\      /  F ield         | OpenFOAM: The Open Source CFD Toolbox
   \\    /   O peration     | Website:  https://openfoam.org
    \\  /    A nd           | Version:  11
     \\/     M anipulation  |
\*---------------------------------------------------------------------------*/
FoamFile
{
    format      ascii;
    class       volScalarField;
    location    "40";
    object      sigmaxy;
}
// * * * * * * * * * * * * * * * * * * * * * * * * * * * * * * * * * * * * * //

dimensions      [1 -1 -2 0 0 0 0];

internalField   nonuniform List<scalar> 
100
(
-0.000121081
-0.0143876
-0.0301198
-0.0501733
-0.0736715
-0.0973259
-0.115441
-0.11922
-0.102013
-0.0410764
0.0144859
0.000945536
-0.0212118
-0.06136
-0.119799
-0.187519
-0.245783
-0.271908
-0.237701
-0.125128
0.0308241
0.0241194
0.00312658
-0.0506578
-0.140823
-0.256097
-0.366715
-0.425985
-0.38991
-0.223098
0.0520612
0.0673816
0.062419
0.010495
-0.100378
-0.262673
-0.440881
-0.569591
-0.557266
-0.332495
0.0770179
0.12987
0.160731
0.134549
0.027495
-0.168919
-0.428617
-0.662201
-0.729662
-0.470953
0.102681
0.20338
0.286792
0.314541
0.251072
0.0608184
-0.262673
-0.649244
-0.882296
-0.637593
0.122674
0.267954
0.407217
0.509782
0.536009
0.423087
0.105428
-0.411845
-0.91664
-0.846082
0.128734
0.294041
0.468817
0.638611
0.775581
0.818561
0.652795
0.137132
-0.66016
-1.03482
0.108968
0.25273
0.416594
0.600149
0.801629
0.997736
1.09543
0.862492
0.0621831
-0.964595
0.0423531
0.131156
0.228064
0.33691
0.467539
0.634687
0.845135
1.03894
0.970306
0.00251536
)
;

boundaryField
{
    left
    {
        type            symmetryPlane;
    }
    right
    {
        type            calculated;
        value           nonuniform List<scalar> 10(-0.0177535 -0.0906177 -0.16737 -0.254782 -0.361472 -0.497033 -0.675594 -0.93955 -1.43475 -2.42126);
    }
    down
    {
        type            symmetryPlane;
    }
    up
    {
        type            calculated;
        value           nonuniform List<scalar> 10(0.0187535 0.0938249 0.169469 0.249318 0.340396 0.453467 0.613932 0.88595 1.41313 2.42077);
    }
    frontAndBack
    {
        type            empty;
    }
}


// ************************************************************************* //
