/*--------------------------------*- C++ -*----------------------------------*\
  =========                 |
  \\      /  F ield         | OpenFOAM: The Open Source CFD Toolbox
   \\    /   O peration     | Website:  https://openfoam.org
    \\  /    A nd           | Version:  11
     \\/     M anipulation  |
\*---------------------------------------------------------------------------*/
FoamFile
{
    format      ascii;
    class       volSymmTensorField;
    location    "40";
    object      sigma;
}
// * * * * * * * * * * * * * * * * * * * * * * * * * * * * * * * * * * * * * //

dimensions      [1 -1 -2 0 0 0 0];

internalField   nonuniform List<symmTensor> 
100
(
(9997.63 -0.000121081 0 2.19588 0 2307.65)
(9997.7 -0.0143876 0 2.10488 0 2307.65)
(9997.8 -0.0301198 -2.13445e-13 1.88327 3.52761e-18 2307.62)
(9997.96 -0.0501733 2.39664e-18 1.52973 -6.40056e-14 2307.57)
(9998.19 -0.0736715 2.13459e-13 1.03929 -6.83127e-18 2307.51)
(9998.49 -0.0973259 0 0.418949 0 2307.44)
(9998.86 -0.115441 0 -0.305832 0 2307.36)
(9999.26 -0.11922 -2.13496e-13 -1.08469 9.33082e-18 2307.27)
(9999.65 -0.102013 -2.13506e-13 -1.83582 -6.408e-14 2307.19)
(9999.96 -0.0410764 2.19e-19 -2.47008 -6.41038e-14 2307.11)
(9997.73 0.0144859 -1.95944e-18 2.14283 6.3991e-14 2307.66)
(9997.79 0.000945536 0 2.05898 0 2307.66)
(9997.87 -0.0212118 0 1.85238 0 2307.63)
(9998.02 -0.06136 1.18443e-17 1.5201 -6.40062e-14 2307.59)
(9998.23 -0.119799 0 1.05177 0 2307.53)
(9998.51 -0.187519 0 0.445996 0 2307.45)
(9998.86 -0.245783 0 -0.280676 0 2307.36)
(9999.24 -0.271908 1.35153e-17 -1.08398 -6.40696e-14 2307.27)
(9999.63 -0.237701 1.30345e-17 -1.89047 -6.40893e-14 2307.17)
(9999.95 -0.125128 1.07713e-18 -2.62416 -6.4107e-14 2307.07)
(9997.95 0.0308241 2.13444e-13 2.06053 6.39924e-14 2307.7)
(9998 0.0241194 2.13449e-13 1.98703 -9.11068e-18 2307.69)
(9998.06 0.00312658 0 1.80638 0 2307.66)
(9998.16 -0.0506578 0 1.51135 0 2307.62)
(9998.32 -0.140823 -2.50993e-17 1.08341 6.40174e-14 2307.55)
(9998.54 -0.256097 0 0.506337 0 2307.47)
(9998.85 -0.366715 2.13481e-13 -0.221322 -4.66234e-17 2307.38)
(9999.21 -0.425985 2.37054e-28 -1.06977 -7.1185e-29 2307.26)
(9999.6 -0.38991 -2.13496e-13 -1.96284 -3.19997e-14 2307.15)
(9999.94 -0.223098 -1.91242e-18 -2.79418 6.41106e-14 2307.03)
(9998.32 0.0520612 2.13462e-13 1.9188 -6.4002e-14 2307.75)
(9998.34 0.0673816 2.13457e-13 1.86243 -1.17944e-17 2307.74)
(9998.36 0.062419 0 1.72255 0 2307.71)
(9998.4 0.010495 -2.13444e-13 1.48752 -3.19723e-14 2307.67)
(9998.47 -0.100378 8.76875e-28 1.12951 -1.81418e-31 2307.6)
(9998.61 -0.262673 2.13471e-13 0.61052 -5.59721e-17 2307.51)
(9998.84 -0.440881 0 -0.104004 0 2307.4)
(9999.16 -0.569591 1.06727e-13 -1.01464 3.19985e-14 2307.26)
(9999.55 -0.557266 -2.13508e-13 -2.04709 6.77086e-17 2307.12)
(9999.91 -0.332495 -1.06756e-13 -3.05618 8.28757e-17 2306.97)
(9998.83 0.0770179 7.02873e-18 1.70962 -6.40073e-14 2307.82)
(9998.83 0.12987 0 1.67329 0 2307.81)
(9998.81 0.160731 1.06734e-13 1.5836 -1.24443e-17 2307.78)
(9998.77 0.134549 -4.53875e-17 1.42797 6.4013e-14 2307.74)
(9998.74 0.027495 -1.0668e-13 1.17339 -6.39917e-14 2307.67)
(9998.74 -0.168919 0 0.759252 0 2307.58)
(9998.83 -0.428617 1.06739e-13 0.101615 -4.24155e-17 2307.45)
(9999.06 -0.662201 2.89733e-17 -0.86766 -3.20319e-14 2307.28)
(9999.45 -0.729662 -1.0678e-13 -2.11297 3.20935e-14 2307.08)
(9999.88 -0.470953 4.07537e-18 -3.42877 -6.41238e-14 2306.87)
(9999.48 0.102681 0 1.42454 0 2307.9)
(9999.46 0.20338 0 1.40926 0 2307.89)
(9999.41 0.286792 -2.13483e-13 1.37077 2.63922e-17 2307.87)
(9999.31 0.314541 -1.45326e-16 1.30311 1.60048e-13 2307.83)
(9999.18 0.251072 2.13479e-13 1.17815 -5.82584e-17 2307.77)
(9999.01 0.0608184 8.28373e-17 0.928274 -6.40252e-14 2307.68)
(9998.89 -0.262673 1.06739e-13 0.409279 -5.12393e-17 2307.53)
(9998.95 -0.649244 4.29169e-17 -0.553973 -3.20282e-14 2307.32)
(9999.28 -0.882296 -1.06751e-13 -2.07498 6.38045e-17 2307.05)
(9999.79 -0.637593 0 -3.9553 0 2306.73)
(10000.2 0.122674 0 1.07564 0 2308)
(10000.2 0.267954 0 1.07611 0 2307.99)
(10000.2 0.407217 -4.26954e-13 1.07742 -6.3977e-14 2307.98)
(10000.1 0.509782 -9.96312e-28 1.08233 7.25267e-28 2307.96)
(9999.87 0.536009 6.40573e-13 1.08635 -6.42045e-14 2307.91)
(9999.56 0.423087 5.37528e-17 1.03711 -3.20132e-14 2307.83)
(9999.18 0.105428 6.09641e-17 0.782214 -3.20147e-14 2307.68)
(9998.89 -0.411845 -6.36828e-17 -0.00379346 3.20221e-14 2307.44)
(9999.03 -0.91664 -2.13374e-13 -1.77195 -6.39108e-14 2307.06)
(9999.62 -0.846082 6.08738e-18 -4.67272 -3.20743e-14 2306.53)
(10001.1 0.128734 -9.96682e-18 0.690828 6.40435e-14 2308.1)
(10001.1 0.294041 2.13523e-13 0.701257 -1.38623e-17 2308.1)
(10001.1 0.468817 -2.13523e-13 0.720828 2.5243e-17 2308.11)
(10001 0.638611 7.39731e-17 0.761209 -6.40416e-14 2308.1)
(10000.9 0.775581 3.20277e-13 0.846151 -8.39766e-17 2308.09)
(10000.6 0.818561 -1.06755e-13 0.969992 4.07613e-17 2308.05)
(10000 0.652795 -1.06749e-13 1.05699 6.0197e-17 2307.94)
(9999.3 0.137132 1.06742e-13 0.731953 -8.77147e-17 2307.7)
(9998.87 -0.66016 1.06939e-13 -0.984155 -6.4181e-14 2307.2)
(9999.3 -1.03482 -3.55858e-14 -5.53881 1.23182e-16 2306.25)
(10001.9 0.108968 2.13534e-13 0.319251 6.40539e-14 2308.2)
(10001.9 0.25273 2.13544e-13 0.334203 -1.36099e-17 2308.22)
(10002 0.416594 -2.13593e-13 0.350247 6.40813e-14 2308.24)
(10002.1 0.600149 -6.99955e-17 0.388717 6.40565e-14 2308.27)
(10002.2 0.801629 4.26999e-13 0.473328 6.39517e-14 2308.3)
(10002.1 0.997736 -6.46639e-17 0.652417 3.20256e-14 2308.34)
(10001.9 1.09543 -8.69003e-17 0.958352 3.20214e-14 2308.34)
(10001.1 0.862492 2.13637e-13 1.17447 -3.22029e-14 2308.21)
(9999.88 0.0621831 -2.13501e-13 0.152825 3.05973e-16 2307.7)
(9999.27 -0.964595 -7.12083e-14 -5.929 3.25163e-14 2306.16)
(10002.6 0.0423531 2.13559e-13 0.0340679 -2.38613e-19 2308.29)
(10002.7 0.131156 2.13562e-13 0.0445233 -1.17363e-18 2308.33)
(10002.9 0.228064 -4.2713e-13 0.0497618 4.18763e-18 2308.36)
(10003.1 0.33691 -5.56209e-17 0.0643752 2.13531e-14 2308.42)
(10003.4 0.467539 4.27155e-13 0.09855 -8.5759e-18 2308.51)
(10004 0.634687 -1.04411e-16 0.186653 2.13539e-14 2308.65)
(10004.7 0.845135 1.06801e-13 0.384833 -5.68469e-18 2308.87)
(10005.6 1.03894 2.13502e-13 0.711852 1.06498e-14 2309.16)
(10006 0.970306 -1.06814e-13 0.736244 3.5886e-17 2309.25)
(10001.9 0.00251536 -7.118e-14 -1.84628 1.69735e-16 2307.7)
)
;

boundaryField
{
    left
    {
        type            symmetryPlane;
    }
    right
    {
        type            calculated;
        value           nonuniform List<symmTensor> 10((10000.1 -0.0177535 -9.85519e-19 -2.43704 -6.41038e-14 2307.15) (10000.1 -0.0906177 -5.03029e-18 -2.5857 -6.4107e-14 2307.11) (10000.1 -0.16737 9.29092e-18 -2.75257 6.41106e-14 2307.08) (10000.1 -0.254782 7.43924e-18 -3.0059 8.28757e-17 2307.02) (10000.1 -0.361472 -2.00657e-17 -3.36601 -6.41238e-14 2306.94) (10000.1 -0.497033 0 -3.86271 0 2306.82) (10000.1 -0.675594 -1.87515e-17 -4.52783 -3.20743e-14 2306.67) (10000.1 -0.93955 2.54357e-18 -5.29823 1.23182e-16 2306.49) (10000.1 -1.43475 4.49529e-17 -5.6802 3.25163e-14 2306.4) (10000 -2.42126 8.11733e-18 -2.39555 1.69735e-16 2307.15));
    }
    down
    {
        type            symmetryPlane;
    }
    up
    {
        type            calculated;
        value           nonuniform List<symmTensor> 10((10002.5 0.0187535 2.13559e-13 -0.0731531 1.04103e-18 2308.26) (10002.7 0.0938249 2.13562e-13 -0.0765234 5.20833e-18 2308.29) (10002.8 0.169469 -4.2713e-13 -0.0792715 -1.88149e-17 2308.32) (10003 0.249318 -5.56209e-17 -0.0830652 -5.18254e-18 2308.38) (10003.4 0.340396 4.27155e-13 -0.0882082 3.77915e-17 2308.45) (10003.9 0.453467 -1.04411e-16 -0.0948314 -5.51751e-18 2308.57) (10004.6 0.613932 1.06801e-13 -0.102463 1.704e-17 2308.73) (10005.4 0.88595 2.13502e-13 -0.108775 4.65446e-17 2308.91) (10005.8 1.41313 -1.06814e-13 -0.10476 -3.92221e-17 2309) (10002.4 2.42077 -7.118e-14 -0.0412176 -1.3438e-16 2308.24));
    }
    frontAndBack
    {
        type            empty;
    }
}


// ************************************************************************* //
