/*--------------------------------*- C++ -*----------------------------------*\
  =========                 |
  \\      /  F ield         | OpenFOAM: The Open Source CFD Toolbox
   \\    /   O peration     | Website:  https://openfoam.org
    \\  /    A nd           | Version:  11
     \\/     M anipulation  |
\*---------------------------------------------------------------------------*/
FoamFile
{
    format      ascii;
    class       volScalarField;
    location    "40";
    object      sigmayy;
}
// * * * * * * * * * * * * * * * * * * * * * * * * * * * * * * * * * * * * * //

dimensions      [1 -1 -2 0 0 0 0];

internalField   nonuniform List<scalar> 
100
(
2.19588
2.10488
1.88327
1.52973
1.03929
0.418949
-0.305832
-1.08469
-1.83582
-2.47008
2.14283
2.05898
1.85238
1.5201
1.05177
0.445996
-0.280676
-1.08398
-1.89047
-2.62416
2.06053
1.98703
1.80638
1.51135
1.08341
0.506337
-0.221322
-1.06977
-1.96284
-2.79418
1.9188
1.86243
1.72255
1.48752
1.12951
0.61052
-0.104004
-1.01464
-2.04709
-3.05618
1.70962
1.67329
1.5836
1.42797
1.17339
0.759252
0.101615
-0.86766
-2.11297
-3.42877
1.42454
1.40926
1.37077
1.30311
1.17815
0.928274
0.409279
-0.553973
-2.07498
-3.9553
1.07564
1.07611
1.07742
1.08233
1.08635
1.03711
0.782214
-0.00379346
-1.77195
-4.67272
0.690828
0.701257
0.720828
0.761209
0.846151
0.969992
1.05699
0.731953
-0.984155
-5.53881
0.319251
0.334203
0.350247
0.388717
0.473328
0.652417
0.958352
1.17447
0.152825
-5.929
0.0340679
0.0445233
0.0497618
0.0643752
0.09855
0.186653
0.384833
0.711852
0.736244
-1.84628
)
;

boundaryField
{
    left
    {
        type            symmetryPlane;
    }
    right
    {
        type            calculated;
        value           nonuniform List<scalar> 10(-2.43704 -2.5857 -2.75257 -3.0059 -3.36601 -3.86271 -4.52783 -5.29823 -5.6802 -2.39555);
    }
    down
    {
        type            symmetryPlane;
    }
    up
    {
        type            calculated;
        value           nonuniform List<scalar> 10(-0.0731531 -0.0765234 -0.0792715 -0.0830652 -0.0882082 -0.0948314 -0.102463 -0.108775 -0.10476 -0.0412176);
    }
    frontAndBack
    {
        type            empty;
    }
}


// ************************************************************************* //
