/*--------------------------------*- C++ -*----------------------------------*\
  =========                 |
  \\      /  F ield         | OpenFOAM: The Open Source CFD Toolbox
   \\    /   O peration     | Website:  https://openfoam.org
    \\  /    A nd           | Version:  11
     \\/     M anipulation  |
\*---------------------------------------------------------------------------*/
FoamFile
{
    format      ascii;
    class       volScalarField;
    location    "40";
    object      sigmaxz;
}
// * * * * * * * * * * * * * * * * * * * * * * * * * * * * * * * * * * * * * //

dimensions      [1 -1 -2 0 0 0 0];

internalField   nonuniform List<scalar> 
100
(
0
0
-2.13445e-13
2.39664e-18
2.13459e-13
0
0
-2.13496e-13
-2.13506e-13
2.19e-19
-1.95944e-18
0
0
1.18443e-17
0
0
0
1.35153e-17
1.30345e-17
1.07713e-18
2.13444e-13
2.13449e-13
0
0
-2.50993e-17
0
2.13481e-13
2.37054e-28
-2.13496e-13
-1.91242e-18
2.13462e-13
2.13457e-13
0
-2.13444e-13
8.76875e-28
2.13471e-13
0
1.06727e-13
-2.13508e-13
-1.06756e-13
7.02873e-18
0
1.06734e-13
-4.53875e-17
-1.0668e-13
0
1.06739e-13
2.89733e-17
-1.0678e-13
4.07537e-18
0
0
-2.13483e-13
-1.45326e-16
2.13479e-13
8.28373e-17
1.06739e-13
4.29169e-17
-1.06751e-13
0
0
0
-4.26954e-13
-9.96312e-28
6.40573e-13
5.37528e-17
6.09641e-17
-6.36828e-17
-2.13374e-13
6.08738e-18
-9.96682e-18
2.13523e-13
-2.13523e-13
7.39731e-17
3.20277e-13
-1.06755e-13
-1.06749e-13
1.06742e-13
1.06939e-13
-3.55858e-14
2.13534e-13
2.13544e-13
-2.13593e-13
-6.99955e-17
4.26999e-13
-6.46639e-17
-8.69003e-17
2.13637e-13
-2.13501e-13
-7.12083e-14
2.13559e-13
2.13562e-13
-4.2713e-13
-5.56209e-17
4.27155e-13
-1.04411e-16
1.06801e-13
2.13502e-13
-1.06814e-13
-7.118e-14
)
;

boundaryField
{
    left
    {
        type            symmetryPlane;
    }
    right
    {
        type            calculated;
        value           nonuniform List<scalar> 10(-9.85519e-19 -5.03029e-18 9.29092e-18 7.43924e-18 -2.00657e-17 0 -1.87515e-17 2.54357e-18 4.49529e-17 8.11733e-18);
    }
    down
    {
        type            symmetryPlane;
    }
    up
    {
        type            calculated;
        value           nonuniform List<scalar> 10(2.13559e-13 2.13562e-13 -4.2713e-13 -5.56209e-17 4.27155e-13 -1.04411e-16 1.06801e-13 2.13502e-13 -1.06814e-13 -7.118e-14);
    }
    frontAndBack
    {
        type            empty;
    }
}


// ************************************************************************* //
