/*--------------------------------*- C++ -*----------------------------------*\
  =========                 |
  \\      /  F ield         | OpenFOAM: The Open Source CFD Toolbox
   \\    /   O peration     | Website:  https://openfoam.org
    \\  /    A nd           | Version:  11
     \\/     M anipulation  |
\*---------------------------------------------------------------------------*/
FoamFile
{
    format      ascii;
    class       volVectorField;
    location    "60";
    object      D;
}
// * * * * * * * * * * * * * * * * * * * * * * * * * * * * * * * * * * * * * //

dimensions      [0 1 0 0 0 0 0];

internalField   nonuniform List<vector> 
100
(
(2.49983e-09 -7.49837e-10 0)
(7.4995e-09 -7.49843e-10 0)
(1.24992e-08 -7.49858e-10 0)
(1.74989e-08 -7.49882e-10 0)
(2.24986e-08 -7.49915e-10 0)
(2.74984e-08 -7.49957e-10 0)
(3.24983e-08 -7.50005e-10 0)
(3.74982e-08 -7.50055e-10 0)
(4.24982e-08 -7.501e-10 0)
(4.74983e-08 -7.50134e-10 0)
(2.49984e-09 -2.24952e-09 0)
(7.49952e-09 -2.24953e-09 0)
(1.24992e-08 -2.24958e-09 0)
(1.74989e-08 -2.24965e-09 0)
(2.24987e-08 -2.24974e-09 0)
(2.74985e-08 -2.24987e-09 0)
(3.24983e-08 -2.25001e-09 0)
(3.74982e-08 -2.25017e-09 0)
(4.24982e-08 -2.25031e-09 0)
(4.74983e-08 -2.25041e-09 0)
(2.49985e-09 -3.7492e-09 0)
(7.49956e-09 -3.74923e-09 0)
(1.24993e-08 -3.7493e-09 0)
(1.7499e-08 -3.74941e-09 0)
(2.24988e-08 -3.74957e-09 0)
(2.74986e-08 -3.74977e-09 0)
(3.24984e-08 -3.75002e-09 0)
(3.74983e-08 -3.75028e-09 0)
(4.24983e-08 -3.75052e-09 0)
(4.74984e-08 -3.75072e-09 0)
(2.49988e-09 -5.24892e-09 0)
(7.49963e-09 -5.24895e-09 0)
(1.24994e-08 -5.24904e-09 0)
(1.74991e-08 -5.24918e-09 0)
(2.24989e-08 -5.24938e-09 0)
(2.74987e-08 -5.24966e-09 0)
(3.24985e-08 -5.25e-09 0)
(3.74984e-08 -5.25039e-09 0)
(4.24984e-08 -5.25076e-09 0)
(4.74985e-08 -5.25105e-09 0)
(2.49991e-09 -6.74866e-09 0)
(7.49973e-09 -6.7487e-09 0)
(1.24995e-08 -6.7488e-09 0)
(1.74994e-08 -6.74895e-09 0)
(2.24992e-08 -6.74919e-09 0)
(2.7499e-08 -6.74952e-09 0)
(3.24988e-08 -6.74996e-09 0)
(3.74986e-08 -6.75048e-09 0)
(4.24986e-08 -6.751e-09 0)
(4.74986e-08 -6.75144e-09 0)
(2.49995e-09 -8.24846e-09 0)
(7.49986e-09 -8.2485e-09 0)
(1.24998e-08 -8.24859e-09 0)
(1.74996e-08 -8.24875e-09 0)
(2.24995e-08 -8.24899e-09 0)
(2.74993e-08 -8.24935e-09 0)
(3.24991e-08 -8.24987e-09 0)
(3.74989e-08 -8.25052e-09 0)
(4.24988e-08 -8.25126e-09 0)
(4.74989e-08 -8.2519e-09 0)
(2.5e-09 -9.74832e-09 0)
(7.50001e-09 -9.74835e-09 0)
(1.25e-08 -9.74844e-09 0)
(1.75e-08 -9.74858e-09 0)
(2.24999e-08 -9.74881e-09 0)
(2.74998e-08 -9.74916e-09 0)
(3.24997e-08 -9.74971e-09 0)
(3.74995e-08 -9.75049e-09 0)
(4.24993e-08 -9.75149e-09 0)
(4.74993e-08 -9.75248e-09 0)
(2.50006e-09 -1.12482e-08 0)
(7.50017e-09 -1.12483e-08 0)
(1.25003e-08 -1.12484e-08 0)
(1.75004e-08 -1.12485e-08 0)
(2.25005e-08 -1.12487e-08 0)
(2.75005e-08 -1.1249e-08 0)
(3.25005e-08 -1.12495e-08 0)
(3.75003e-08 -1.12503e-08 0)
(4.25001e-08 -1.12516e-08 0)
(4.74999e-08 -1.12532e-08 0)
(2.5001e-09 -1.27482e-08 0)
(7.50032e-09 -1.27483e-08 0)
(1.25005e-08 -1.27484e-08 0)
(1.75008e-08 -1.27485e-08 0)
(2.2501e-08 -1.27486e-08 0)
(2.75013e-08 -1.27489e-08 0)
(3.25015e-08 -1.27493e-08 0)
(3.75017e-08 -1.27501e-08 0)
(4.25016e-08 -1.27516e-08 0)
(4.75014e-08 -1.27542e-08 0)
(2.50014e-09 -1.42483e-08 0)
(7.50043e-09 -1.42483e-08 0)
(1.25007e-08 -1.42484e-08 0)
(1.75011e-08 -1.42485e-08 0)
(2.25015e-08 -1.42487e-08 0)
(2.75019e-08 -1.42489e-08 0)
(3.25025e-08 -1.42493e-08 0)
(3.75033e-08 -1.42499e-08 0)
(4.25042e-08 -1.42514e-08 0)
(4.75052e-08 -1.42551e-08 0)
)
;

boundaryField
{
    left
    {
        type            symmetryPlane;
    }
    right
    {
        type            tractionDisplacement;
        traction        uniform (10000 0 0);
        pressure        
        {
            type            uniform;
            value           0;
        }
        value           nonuniform List<vector> 10((4.99983e-08 -7.5014e-10 -3.60375e-31) (4.99984e-08 -2.25045e-09 -1.80194e-30) (4.99984e-08 -3.75077e-09 3.26237e-30) (4.99985e-08 -5.25114e-09 2.08172e-25) (4.99987e-08 -6.75156e-09 -7.11943e-30) (4.9999e-08 -8.2521e-09 0) (4.99994e-08 -9.75281e-09 -9.16217e-30) (5.00001e-08 -1.12539e-08 6.93911e-26) (5.00016e-08 -1.27557e-08 1.38826e-25) (5.00052e-08 -1.42587e-08 1.38791e-25));
    }
    down
    {
        type            symmetryPlane;
    }
    up
    {
        type            tractionDisplacement;
        traction        uniform (0 0 0);
        pressure        
        {
            type            uniform;
            value           0;
        }
        value           nonuniform List<vector> 10((2.50015e-09 -1.49984e-08 3.96617e-31) (7.50047e-09 -1.49984e-08 1.96602e-30) (1.25008e-08 -1.49985e-08 -7.05984e-30) (1.75012e-08 -1.49986e-08 -4.16369e-26) (2.25016e-08 -1.49988e-08 1.44606e-29) (2.75021e-08 -1.4999e-08 -4.16378e-26) (3.25028e-08 -1.49994e-08 8.50869e-30) (3.75039e-08 -1.50001e-08 -2.07831e-26) (4.25058e-08 -1.50016e-08 -4.32243e-29) (4.75087e-08 -1.50052e-08 -1.96369e-28));
    }
    frontAndBack
    {
        type            empty;
    }
}


// ************************************************************************* //
