/*--------------------------------*- C++ -*----------------------------------*\
  =========                 |
  \\      /  F ield         | OpenFOAM: The Open Source CFD Toolbox
   \\    /   O peration     | Website:  https://openfoam.org
    \\  /    A nd           | Version:  11
     \\/     M anipulation  |
\*---------------------------------------------------------------------------*/
FoamFile
{
    format      ascii;
    class       volScalarField;
    location    "60";
    object      sigmaxz;
}
// * * * * * * * * * * * * * * * * * * * * * * * * * * * * * * * * * * * * * //

dimensions      [1 -1 -2 0 0 0 0];

internalField   nonuniform List<scalar> 
100
(
0
0
-2.13491e-13
5.0244e-19
2.13495e-13
0
0
-2.13503e-13
-2.13505e-13
5.43233e-20
-4.47764e-19
0
0
2.50966e-18
0
0
0
2.10974e-18
1.98251e-18
2.67324e-19
2.13491e-13
2.13492e-13
0
0
-5.19397e-18
0
2.13499e-13
2.3704e-28
-2.13504e-13
-4.78199e-19
2.13495e-13
2.13494e-13
0
-2.13491e-13
8.77e-28
2.13496e-13
0
1.06748e-13
-2.13506e-13
-1.06753e-13
1.62463e-18
0
1.06748e-13
-1.03836e-17
-1.06736e-13
0
1.06749e-13
5.36884e-18
-1.06757e-13
1.08944e-18
0
0
-2.135e-13
-3.38268e-17
2.13498e-13
1.90926e-17
1.06748e-13
8.91792e-18
-1.06752e-13
0
0
0
-4.26997e-13
-9.95733e-28
6.40525e-13
1.29025e-17
1.46501e-17
-1.49046e-17
-2.13473e-13
1.81637e-18
-2.15437e-18
2.13509e-13
-2.13509e-13
1.6801e-17
3.20261e-13
-1.06752e-13
-1.0675e-13
1.06748e-13
1.06798e-13
-3.55846e-14
2.13512e-13
2.13514e-13
-2.13524e-13
-1.48218e-17
4.2701e-13
-1.50193e-17
-2.15858e-17
2.13537e-13
-2.135e-13
-7.11806e-14
2.13516e-13
2.13517e-13
-4.27037e-13
-9.68565e-18
4.27045e-13
-1.97652e-17
1.06766e-13
2.13511e-13
-1.06773e-13
-7.11718e-14
)
;

boundaryField
{
    left
    {
        type            symmetryPlane;
    }
    right
    {
        type            calculated;
        value           nonuniform List<scalar> 10(-1.30485e-19 -6.5675e-19 1.19481e-18 1.46248e-18 -2.56155e-18 0 -2.88218e-18 5.86114e-19 1.24124e-17 3.22576e-18);
    }
    down
    {
        type            symmetryPlane;
    }
    up
    {
        type            calculated;
        value           nonuniform List<scalar> 10(2.13516e-13 2.13517e-13 -4.27037e-13 -9.68565e-18 4.27045e-13 -1.97652e-17 1.06766e-13 2.13511e-13 -1.06773e-13 -7.11718e-14);
    }
    frontAndBack
    {
        type            empty;
    }
}


// ************************************************************************* //
