/*--------------------------------*- C++ -*----------------------------------*\
  =========                 |
  \\      /  F ield         | OpenFOAM: The Open Source CFD Toolbox
   \\    /   O peration     | Website:  https://openfoam.org
    \\  /    A nd           | Version:  11
     \\/     M anipulation  |
\*---------------------------------------------------------------------------*/
FoamFile
{
    format      ascii;
    class       volScalarField;
    location    "60";
    object      sigmayy;
}
// * * * * * * * * * * * * * * * * * * * * * * * * * * * * * * * * * * * * * //

dimensions      [1 -1 -2 0 0 0 0];

internalField   nonuniform List<scalar> 
100
(
0.49406
0.472361
0.420193
0.33685
0.22107
0.0751828
-0.0926188
-0.267175
-0.426372
-0.546236
0.482996
0.463676
0.41651
0.339717
0.229914
0.0865629
-0.0848302
-0.269975
-0.445516
-0.584763
0.465325
0.44949
0.410605
0.345095
0.2466
0.109576
-0.0661436
-0.269607
-0.473721
-0.637611
0.433739
0.423247
0.396887
0.349504
0.271374
0.149544
-0.0273513
-0.257539
-0.510162
-0.725736
0.385427
0.380931
0.369402
0.345681
0.298552
0.207324
0.0433842
-0.214297
-0.546581
-0.860977
0.318373
0.319421
0.321806
0.323184
0.315125
0.274672
0.152308
-0.112983
-0.551321
-1.06737
0.236055
0.24043
0.251558
0.271404
0.300189
0.32208
0.285352
0.0755562
-0.466294
-1.36706
0.146939
0.152083
0.164091
0.188586
0.235304
0.307455
0.382556
0.328393
-0.207145
-1.74901
0.064604
0.0688019
0.0756263
0.0923415
0.128997
0.206607
0.343282
0.470273
0.16898
-1.98298
0.00624864
0.00820858
0.00964984
0.014266
0.0261453
0.0583061
0.134038
0.266428
0.296608
-0.629184
)
;

boundaryField
{
    left
    {
        type            symmetryPlane;
    }
    right
    {
        type            calculated;
        value           nonuniform List<scalar> 10(-0.540409 -0.577978 -0.629998 -0.715707 -0.846279 -1.04117 -1.3186 -1.65991 -1.88327 -0.81444);
    }
    down
    {
        type            symmetryPlane;
    }
    up
    {
        type            calculated;
        value           nonuniform List<scalar> 10(-0.0133859 -0.0141427 -0.0150675 -0.0165507 -0.0188474 -0.0223267 -0.0272922 -0.0333767 -0.0368721 -0.0156769);
    }
    frontAndBack
    {
        type            empty;
    }
}


// ************************************************************************* //
