/*--------------------------------*- C++ -*----------------------------------*\
  =========                 |
  \\      /  F ield         | OpenFOAM: The Open Source CFD Toolbox
   \\    /   O peration     | Website:  https://openfoam.org
    \\  /    A nd           | Version:  11
     \\/     M anipulation  |
\*---------------------------------------------------------------------------*/
FoamFile
{
    format      ascii;
    class       volScalarField;
    location    "60";
    object      sigmaxx;
}
// * * * * * * * * * * * * * * * * * * * * * * * * * * * * * * * * * * * * * //

dimensions      [1 -1 -2 0 0 0 0];

internalField   nonuniform List<scalar> 
100
(
9999.48
9999.5
9999.52
9999.55
9999.6
9999.67
9999.76
9999.85
9999.93
9999.99
9999.5
9999.52
9999.53
9999.56
9999.61
9999.67
9999.75
9999.84
9999.93
9999.99
9999.56
9999.56
9999.57
9999.59
9999.62
9999.67
9999.74
9999.83
9999.92
9999.99
9999.64
9999.64
9999.64
9999.63
9999.64
9999.67
9999.72
9999.8
9999.9
9999.98
9999.76
9999.75
9999.73
9999.71
9999.69
9999.67
9999.69
9999.75
9999.86
9999.97
9999.91
9999.9
9999.87
9999.84
9999.78
9999.71
9999.66
9999.67
9999.78
9999.93
10000.1
10000.1
10000.1
10000
9999.95
9999.84
9999.7
9999.6
9999.65
9999.87
10000.3
10000.3
10000.3
10000.3
10000.2
10000.1
9999.92
9999.67
9999.53
9999.74
10000.4
10000.5
10000.5
10000.5
10000.6
10000.6
10000.5
10000.2
9999.83
9999.7
10000.6
10000.6
10000.7
10000.7
10000.9
10001.1
10001.4
10001.8
10002
10000.6
)
;

boundaryField
{
    left
    {
        type            symmetryPlane;
    }
    right
    {
        type            calculated;
        value           uniform 10000;
    }
    down
    {
        type            symmetryPlane;
    }
    up
    {
        type            calculated;
        value           nonuniform List<scalar> 10(10000.6 10000.6 10000.6 10000.7 10000.9 10001 10001.3 10001.7 10001.9 10000.8);
    }
    frontAndBack
    {
        type            empty;
    }
}


// ************************************************************************* //
