/*--------------------------------*- C++ -*----------------------------------*\
  =========                 |
  \\      /  F ield         | OpenFOAM: The Open Source CFD Toolbox
   \\    /   O peration     | Website:  https://openfoam.org
    \\  /    A nd           | Version:  11
     \\/     M anipulation  |
\*---------------------------------------------------------------------------*/
FoamFile
{
    format      ascii;
    class       volScalarField;
    location    "60";
    object      sigmaEq;
}
// * * * * * * * * * * * * * * * * * * * * * * * * * * * * * * * * * * * * * //

dimensions      [1 -1 -2 0 0 0 0];

internalField   nonuniform List<scalar> 
100
(
9068.26
9068.29
9068.34
9068.44
9068.57
9068.75
9068.95
9069.16
9069.36
9069.5
9068.29
9068.31
9068.36
9068.45
9068.57
9068.74
9068.94
9069.16
9069.36
9069.53
9068.35
9068.36
9068.4
9068.47
9068.57
9068.72
9068.91
9069.14
9069.38
9069.56
9068.45
9068.45
9068.47
9068.5
9068.57
9068.68
9068.86
9069.11
9069.39
9069.62
9068.59
9068.59
9068.58
9068.58
9068.59
9068.65
9068.78
9069.03
9069.38
9069.71
9068.77
9068.76
9068.74
9068.71
9068.66
9068.63
9068.68
9068.89
9069.31
9069.84
9068.99
9068.98
9068.96
9068.91
9068.83
9068.71
9068.61
9068.68
9069.13
9070
9069.23
9069.23
9069.22
9069.19
9069.12
9068.97
9068.74
9068.56
9068.83
9070.16
9069.45
9069.46
9069.48
9069.5
9069.5
9069.45
9069.28
9068.94
9068.82
9070.31
9069.61
9069.64
9069.68
9069.75
9069.86
9070.02
9070.24
9070.49
9070.69
9070.14
)
;

boundaryField
{
    left
    {
        type            symmetryPlane;
    }
    right
    {
        type            calculated;
        value           nonuniform List<scalar> 10(9069.51 9069.54 9069.58 9069.65 9069.75 9069.89 9070.11 9070.37 9070.54 9069.72);
    }
    down
    {
        type            symmetryPlane;
    }
    up
    {
        type            calculated;
        value           nonuniform List<scalar> 10(9069.62 9069.65 9069.69 9069.77 9069.88 9070.06 9070.32 9070.64 9070.84 9069.85);
    }
    frontAndBack
    {
        type            empty;
    }
}


// ************************************************************************* //
