/*--------------------------------*- C++ -*----------------------------------*\
  =========                 |
  \\      /  F ield         | OpenFOAM: The Open Source CFD Toolbox
   \\    /   O peration     | Website:  https://openfoam.org
    \\  /    A nd           | Version:  11
     \\/     M anipulation  |
\*---------------------------------------------------------------------------*/
FoamFile
{
    format      ascii;
    class       volSymmTensorField;
    location    "60";
    object      sigma;
}
// * * * * * * * * * * * * * * * * * * * * * * * * * * * * * * * * * * * * * //

dimensions      [1 -1 -2 0 0 0 0];

internalField   nonuniform List<symmTensor> 
100
(
(9999.48 -6.48613e-05 0 0.49406 0 2307.69)
(9999.5 -0.00356224 0 0.472361 0 2307.68)
(9999.52 -0.00759411 -2.13491e-13 0.420193 8.27203e-19 2307.68)
(9999.55 -0.012888 5.0244e-19 0.33685 -6.40413e-14 2307.67)
(9999.6 -0.0191409 2.13495e-13 0.22107 -1.6033e-18 2307.65)
(9999.67 -0.0252146 0 0.0751828 0 2307.63)
(9999.76 -0.0292771 0 -0.0926188 0 2307.62)
(9999.85 -0.0290312 -2.13503e-13 -0.267175 2.02856e-18 2307.6)
(9999.93 -0.0229716 -2.13505e-13 -0.426372 -6.40583e-14 2307.58)
(9999.99 -0.0075881 5.43233e-20 -0.546236 -6.40629e-14 2307.56)
(9999.5 0.00324599 -4.47764e-19 0.482996 6.40378e-14 2307.69)
(9999.52 -0.000443723 0 0.463676 0 2307.69)
(9999.53 -0.00698671 0 0.41651 0 2307.68)
(9999.56 -0.0190566 2.50966e-18 0.339717 -6.40413e-14 2307.67)
(9999.61 -0.0364826 0 0.229914 0 2307.66)
(9999.67 -0.0560253 0 0.0865629 0 2307.64)
(9999.75 -0.0713757 0 -0.0848302 0 2307.62)
(9999.84 -0.075023 2.10974e-18 -0.269975 -6.40561e-14 2307.59)
(9999.93 -0.0596964 1.98251e-18 -0.445516 -6.40604e-14 2307.57)
(9999.99 -0.0225273 2.67324e-19 -0.584763 -6.40638e-14 2307.56)
(9999.56 0.00719289 2.13491e-13 0.465325 6.40381e-14 2307.7)
(9999.56 0.00553381 2.13492e-13 0.44949 -2.06316e-18 2307.69)
(9999.57 -0.00104664 0 0.410605 0 2307.69)
(9999.59 -0.0177692 0 0.345095 0 2307.68)
(9999.62 -0.0454783 -5.19397e-18 0.2466 6.40436e-14 2307.66)
(9999.67 -0.0799538 0 0.109576 0 2307.64)
(9999.74 -0.110834 2.13499e-13 -0.0661436 -1.07991e-17 2307.62)
(9999.83 -0.122881 2.3704e-28 -0.269607 -7.11285e-29 2307.59)
(9999.92 -0.102149 -2.13504e-13 -0.473721 -3.20211e-14 2307.56)
(9999.99 -0.0405063 -4.78199e-19 -0.637611 6.40649e-14 2307.54)
(9999.64 0.0125856 2.13495e-13 0.433739 -6.40403e-14 2307.71)
(9999.64 0.0176426 2.13494e-13 0.423247 -2.583e-18 2307.71)
(9999.64 0.0157515 0 0.396887 0 2307.7)
(9999.63 -0.000817212 -2.13491e-13 0.349504 -3.20134e-14 2307.69)
(9999.64 -0.0356552 8.77e-28 0.271374 -4.2319e-32 2307.67)
(9999.67 -0.0858472 2.13496e-13 0.149544 -1.32296e-17 2307.65)
(9999.72 -0.138803 0 -0.0273513 0 2307.62)
(9999.8 -0.171053 1.06748e-13 -0.257539 3.20197e-14 2307.59)
(9999.9 -0.152166 -2.13506e-13 -0.510162 1.41781e-17 2307.55)
(9999.98 -0.0616646 -1.06753e-13 -0.725736 1.38023e-17 2307.52)
(9999.76 0.0190898 1.62463e-18 0.385427 -6.40415e-14 2307.73)
(9999.75 0.0355997 0 0.380931 0 2307.72)
(9999.73 0.0444863 1.06748e-13 0.369402 -2.66096e-18 2307.72)
(9999.71 0.035638 -1.03836e-17 0.345681 6.40421e-14 2307.71)
(9999.69 0.00136416 -1.06736e-13 0.298552 -6.40369e-14 2307.69)
(9999.67 -0.0610279 0 0.207324 0 2307.66)
(9999.69 -0.141752 1.06749e-13 0.0433842 -1.01781e-17 2307.63)
(9999.75 -0.208386 5.36884e-18 -0.214297 -3.20272e-14 2307.59)
(9999.86 -0.209702 -1.06757e-13 -0.546581 3.20413e-14 2307.53)
(9999.97 -0.0911931 1.08944e-18 -0.860977 -6.40695e-14 2307.49)
(9999.91 0.025626 0 0.318373 0 2307.74)
(9999.9 0.0563376 0 0.319421 0 2307.74)
(9999.87 0.0810433 -2.135e-13 0.321806 5.30619e-18 2307.74)
(9999.84 0.0890458 -3.38268e-17 0.323184 1.60108e-13 2307.73)
(9999.78 0.0685976 2.13498e-13 0.315125 -1.30043e-17 2307.71)
(9999.71 0.00739931 1.90926e-17 0.274672 -6.40436e-14 2307.69)
(9999.66 -0.0965289 1.06748e-13 0.152308 -1.24867e-17 2307.65)
(9999.67 -0.215511 8.91792e-18 -0.112983 -3.20258e-14 2307.59)
(9999.78 -0.267261 -1.06752e-13 -0.551321 1.46948e-17 2307.51)
(9999.93 -0.131071 0 -1.06737 0 2307.43)
(10000.1 0.0302084 0 0.236055 0 2307.77)
(10000.1 0.0732928 0 0.24043 0 2307.76)
(10000.1 0.114363 -4.26997e-13 0.251558 -6.40366e-14 2307.76)
(10000 0.145727 -9.95733e-28 0.271404 7.25308e-28 2307.76)
(9999.95 0.154616 6.40525e-13 0.300189 -6.40819e-14 2307.75)
(9999.84 0.119233 1.29025e-17 0.32208 -3.20217e-14 2307.73)
(9999.7 0.016551 1.46501e-17 0.285352 -3.20217e-14 2307.69)
(9999.6 -0.148503 -1.49046e-17 0.0755562 3.20236e-14 2307.62)
(9999.65 -0.290005 -2.13473e-13 -0.466294 -6.40165e-14 2307.5)
(9999.87 -0.189829 1.81637e-18 -1.36706 -3.20398e-14 2307.35)
(10000.3 0.0305453 -2.15437e-18 0.146939 6.40499e-14 2307.79)
(10000.3 0.0776234 2.13509e-13 0.152083 -2.2889e-18 2307.79)
(10000.3 0.127814 -2.13509e-13 0.164091 4.28523e-18 2307.79)
(10000.3 0.179119 1.6801e-17 0.188586 -6.40489e-14 2307.79)
(10000.2 0.223713 3.20261e-13 0.235304 -1.61587e-17 2307.8)
(10000.1 0.24123 -1.06752e-13 0.307455 8.70961e-18 2307.79)
(9999.92 0.191627 -1.0675e-13 0.382556 1.4355e-17 2307.76)
(9999.67 0.0274865 1.06748e-13 0.328393 -2.27571e-17 2307.69)
(9999.53 -0.214869 1.06798e-13 -0.207145 -6.40837e-14 2307.54)
(9999.74 -0.255308 -3.55846e-14 -1.74901 3.0532e-17 2307.23)
(10000.4 0.0241922 2.13512e-13 0.064604 6.40523e-14 2307.81)
(10000.5 0.0618518 2.13514e-13 0.0688019 -2.19136e-18 2307.81)
(10000.5 0.105523 -2.13524e-13 0.0756263 6.40568e-14 2307.82)
(10000.5 0.157619 -1.48218e-17 0.0923415 6.40527e-14 2307.83)
(10000.6 0.21974 4.2701e-13 0.128997 6.40342e-14 2307.85)
(10000.6 0.285958 -1.50193e-17 0.206607 3.20253e-14 2307.87)
(10000.5 0.325018 -2.15858e-17 0.343282 3.20235e-14 2307.88)
(10000.2 0.259157 2.13537e-13 0.470273 -3.20695e-14 2307.85)
(9999.83 0.0149975 -2.135e-13 0.16898 8.72936e-17 2307.69)
(9999.7 -0.26112 -7.11806e-14 -1.98298 3.21723e-14 2307.17)
(10000.6 0.00785105 2.13516e-13 0.00624864 -6.37815e-20 2307.82)
(10000.6 0.0236356 2.13517e-13 0.00820858 -3.1435e-19 2307.83)
(10000.7 0.0415812 -4.27037e-13 0.00964984 1.12738e-18 2307.85)
(10000.7 0.0631915 -9.68565e-18 0.014266 2.13512e-14 2307.87)
(10000.9 0.0918154 4.27045e-13 0.0261453 -2.38633e-18 2307.9)
(10001.1 0.133199 -1.97652e-17 0.0583061 2.13515e-14 2307.95)
(10001.4 0.192846 1.06766e-13 0.134038 -1.70885e-18 2308.04)
(10001.8 0.259095 2.13511e-13 0.266428 1.06674e-14 2308.16)
(10002 0.263981 -1.06773e-13 0.296608 1.11619e-17 2308.22)
(10000.6 0.000822292 -7.11718e-14 -0.629184 5.29567e-17 2307.69)
)
;

boundaryField
{
    left
    {
        type            symmetryPlane;
    }
    right
    {
        type            calculated;
        value           nonuniform List<symmTensor> 10((10000 -0.0023506 -1.30485e-19 -0.540409 -6.40629e-14 2307.57) (10000 -0.011831 -6.5675e-19 -0.577978 -6.40638e-14 2307.56) (10000 -0.0215238 1.19481e-18 -0.629998 6.40649e-14 2307.55) (10000 -0.032421 1.46248e-18 -0.715707 1.38023e-17 2307.53) (10000 -0.0461447 -2.56155e-18 -0.846279 -6.40695e-14 2307.5) (10000 -0.0666546 0 -1.04117 0 2307.46) (10000 -0.103841 -2.88218e-18 -1.3186 -3.20398e-14 2307.39) (10000 -0.188069 5.86114e-19 -1.65991 3.0532e-17 2307.32) (10000 -0.400298 1.24124e-17 -1.88327 3.21723e-14 2307.27) (10000 -0.860256 3.22576e-18 -0.81444 5.29567e-17 2307.51));
    }
    down
    {
        type            symmetryPlane;
    }
    up
    {
        type            calculated;
        value           nonuniform List<symmTensor> 10((10000.6 0.00251503 2.13516e-13 -0.0133859 1.39612e-19 2307.82) (10000.6 0.0124995 2.13517e-13 -0.0141427 6.93863e-19 2307.83) (10000.6 0.0224554 -4.27037e-13 -0.0150675 -2.49305e-18 2307.84) (10000.7 0.0329885 -9.68565e-18 -0.0165507 -1.00821e-18 2307.86) (10000.9 0.0453006 4.27045e-13 -0.0188474 5.02938e-18 2307.88) (10001 0.0624752 -1.97652e-17 -0.0223267 -1.20847e-18 2307.93) (10001.3 0.0956413 1.06766e-13 -0.0272922 2.65458e-18 2307.99) (10001.7 0.179733 2.13511e-13 -0.0333767 9.38306e-18 2308.07) (10001.9 0.396477 -1.06773e-13 -0.0368721 -1.10044e-17 2308.12) (10000.8 0.860103 -7.11718e-14 -0.0156769 -4.77453e-17 2307.88));
    }
    frontAndBack
    {
        type            empty;
    }
}


// ************************************************************************* //
