/*--------------------------------*- C++ -*----------------------------------*\
  =========                 |
  \\      /  F ield         | OpenFOAM: The Open Source CFD Toolbox
   \\    /   O peration     | Website:  https://openfoam.org
    \\  /    A nd           | Version:  11
     \\/     M anipulation  |
\*---------------------------------------------------------------------------*/
FoamFile
{
    format      ascii;
    class       volScalarField;
    location    "60";
    object      sigmaxy;
}
// * * * * * * * * * * * * * * * * * * * * * * * * * * * * * * * * * * * * * //

dimensions      [1 -1 -2 0 0 0 0];

internalField   nonuniform List<scalar> 
100
(
-6.48613e-05
-0.00356224
-0.00759411
-0.012888
-0.0191409
-0.0252146
-0.0292771
-0.0290312
-0.0229716
-0.0075881
0.00324599
-0.000443723
-0.00698671
-0.0190566
-0.0364826
-0.0560253
-0.0713757
-0.075023
-0.0596964
-0.0225273
0.00719289
0.00553381
-0.00104664
-0.0177692
-0.0454783
-0.0799538
-0.110834
-0.122881
-0.102149
-0.0405063
0.0125856
0.0176426
0.0157515
-0.000817212
-0.0356552
-0.0858472
-0.138803
-0.171053
-0.152166
-0.0616646
0.0190898
0.0355997
0.0444863
0.035638
0.00136416
-0.0610279
-0.141752
-0.208386
-0.209702
-0.0911931
0.025626
0.0563376
0.0810433
0.0890458
0.0685976
0.00739931
-0.0965289
-0.215511
-0.267261
-0.131071
0.0302084
0.0732928
0.114363
0.145727
0.154616
0.119233
0.016551
-0.148503
-0.290005
-0.189829
0.0305453
0.0776234
0.127814
0.179119
0.223713
0.24123
0.191627
0.0274865
-0.214869
-0.255308
0.0241922
0.0618518
0.105523
0.157619
0.21974
0.285958
0.325018
0.259157
0.0149975
-0.26112
0.00785105
0.0236356
0.0415812
0.0631915
0.0918154
0.133199
0.192846
0.259095
0.263981
0.000822292
)
;

boundaryField
{
    left
    {
        type            symmetryPlane;
    }
    right
    {
        type            calculated;
        value           nonuniform List<scalar> 10(-0.0023506 -0.011831 -0.0215238 -0.032421 -0.0461447 -0.0666546 -0.103841 -0.188069 -0.400298 -0.860256);
    }
    down
    {
        type            symmetryPlane;
    }
    up
    {
        type            calculated;
        value           nonuniform List<scalar> 10(0.00251503 0.0124995 0.0224554 0.0329885 0.0453006 0.0624752 0.0956413 0.179733 0.396477 0.860103);
    }
    frontAndBack
    {
        type            empty;
    }
}


// ************************************************************************* //
