/*--------------------------------*- C++ -*----------------------------------*\
  =========                 |
  \\      /  F ield         | OpenFOAM: The Open Source CFD Toolbox
   \\    /   O peration     | Website:  https://openfoam.org
    \\  /    A nd           | Version:  11
     \\/     M anipulation  |
\*---------------------------------------------------------------------------*/
FoamFile
{
    format      ascii;
    class       volScalarField;
    location    "60";
    object      sigmazz;
}
// * * * * * * * * * * * * * * * * * * * * * * * * * * * * * * * * * * * * * //

dimensions      [1 -1 -2 0 0 0 0];

internalField   nonuniform List<scalar> 
100
(
2307.69
2307.68
2307.68
2307.67
2307.65
2307.63
2307.62
2307.6
2307.58
2307.56
2307.69
2307.69
2307.68
2307.67
2307.66
2307.64
2307.62
2307.59
2307.57
2307.56
2307.7
2307.69
2307.69
2307.68
2307.66
2307.64
2307.62
2307.59
2307.56
2307.54
2307.71
2307.71
2307.7
2307.69
2307.67
2307.65
2307.62
2307.59
2307.55
2307.52
2307.73
2307.72
2307.72
2307.71
2307.69
2307.66
2307.63
2307.59
2307.53
2307.49
2307.74
2307.74
2307.74
2307.73
2307.71
2307.69
2307.65
2307.59
2307.51
2307.43
2307.77
2307.76
2307.76
2307.76
2307.75
2307.73
2307.69
2307.62
2307.5
2307.35
2307.79
2307.79
2307.79
2307.79
2307.8
2307.79
2307.76
2307.69
2307.54
2307.23
2307.81
2307.81
2307.82
2307.83
2307.85
2307.87
2307.88
2307.85
2307.69
2307.17
2307.82
2307.83
2307.85
2307.87
2307.9
2307.95
2308.04
2308.16
2308.22
2307.69
)
;

boundaryField
{
    left
    {
        type            symmetryPlane;
    }
    right
    {
        type            calculated;
        value           nonuniform List<scalar> 10(2307.57 2307.56 2307.55 2307.53 2307.5 2307.46 2307.39 2307.32 2307.27 2307.51);
    }
    down
    {
        type            symmetryPlane;
    }
    up
    {
        type            calculated;
        value           nonuniform List<scalar> 10(2307.82 2307.83 2307.84 2307.86 2307.88 2307.93 2307.99 2308.07 2308.12 2307.88);
    }
    frontAndBack
    {
        type            empty;
    }
}


// ************************************************************************* //
