/*--------------------------------*- C++ -*----------------------------------*\
  =========                 |
  \\      /  F ield         | OpenFOAM: The Open Source CFD Toolbox
   \\    /   O peration     | Website:  https://openfoam.org
    \\  /    A nd           | Version:  11
     \\/     M anipulation  |
\*---------------------------------------------------------------------------*/
FoamFile
{
    format      ascii;
    class       volScalarField;
    location    "60";
    object      sigmayz;
}
// * * * * * * * * * * * * * * * * * * * * * * * * * * * * * * * * * * * * * //

dimensions      [1 -1 -2 0 0 0 0];

internalField   nonuniform List<scalar> 
100
(
0
0
8.27203e-19
-6.40413e-14
-1.6033e-18
0
0
2.02856e-18
-6.40583e-14
-6.40629e-14
6.40378e-14
0
0
-6.40413e-14
0
0
0
-6.40561e-14
-6.40604e-14
-6.40638e-14
6.40381e-14
-2.06316e-18
0
0
6.40436e-14
0
-1.07991e-17
-7.11285e-29
-3.20211e-14
6.40649e-14
-6.40403e-14
-2.583e-18
0
-3.20134e-14
-4.2319e-32
-1.32296e-17
0
3.20197e-14
1.41781e-17
1.38023e-17
-6.40415e-14
0
-2.66096e-18
6.40421e-14
-6.40369e-14
0
-1.01781e-17
-3.20272e-14
3.20413e-14
-6.40695e-14
0
0
5.30619e-18
1.60108e-13
-1.30043e-17
-6.40436e-14
-1.24867e-17
-3.20258e-14
1.46948e-17
0
0
0
-6.40366e-14
7.25308e-28
-6.40819e-14
-3.20217e-14
-3.20217e-14
3.20236e-14
-6.40165e-14
-3.20398e-14
6.40499e-14
-2.2889e-18
4.28523e-18
-6.40489e-14
-1.61587e-17
8.70961e-18
1.4355e-17
-2.27571e-17
-6.40837e-14
3.0532e-17
6.40523e-14
-2.19136e-18
6.40568e-14
6.40527e-14
6.40342e-14
3.20253e-14
3.20235e-14
-3.20695e-14
8.72936e-17
3.21723e-14
-6.37815e-20
-3.1435e-19
1.12738e-18
2.13512e-14
-2.38633e-18
2.13515e-14
-1.70885e-18
1.06674e-14
1.11619e-17
5.29567e-17
)
;

boundaryField
{
    left
    {
        type            symmetryPlane;
    }
    right
    {
        type            calculated;
        value           nonuniform List<scalar> 10(-6.40629e-14 -6.40638e-14 6.40649e-14 1.38023e-17 -6.40695e-14 0 -3.20398e-14 3.0532e-17 3.21723e-14 5.29567e-17);
    }
    down
    {
        type            symmetryPlane;
    }
    up
    {
        type            calculated;
        value           nonuniform List<scalar> 10(1.39612e-19 6.93863e-19 -2.49305e-18 -1.00821e-18 5.02938e-18 -1.20847e-18 2.65458e-18 9.38306e-18 -1.10044e-17 -4.77453e-17);
    }
    frontAndBack
    {
        type            empty;
    }
}


// ************************************************************************* //
