/*--------------------------------*- C++ -*----------------------------------*\
  =========                 |
  \\      /  F ield         | OpenFOAM: The Open Source CFD Toolbox
   \\    /   O peration     | Website:  https://openfoam.org
    \\  /    A nd           | Version:  11
     \\/     M anipulation  |
\*---------------------------------------------------------------------------*/
FoamFile
{
    format      ascii;
    class       volVectorField;
    location    "20";
    object      D;
}
// * * * * * * * * * * * * * * * * * * * * * * * * * * * * * * * * * * * * * //

dimensions      [0 1 0 0 0 0 0];

internalField   nonuniform List<vector> 
100
(
(2.49497e-09 -7.45252e-10 0)
(7.48507e-09 -7.4541e-10 0)
(1.24755e-08 -7.45765e-10 0)
(1.74666e-08 -7.46336e-10 0)
(2.24587e-08 -7.47139e-10 0)
(2.7452e-08 -7.48172e-10 0)
(3.2447e-08 -7.49417e-10 0)
(3.74438e-08 -7.50824e-10 0)
(4.24428e-08 -7.52262e-10 0)
(4.74439e-08 -7.53602e-10 0)
(2.49513e-09 -2.23591e-09 0)
(7.48554e-09 -2.23636e-09 0)
(1.24763e-08 -2.23741e-09 0)
(1.74677e-08 -2.23911e-09 0)
(2.246e-08 -2.24149e-09 0)
(2.74535e-08 -2.24456e-09 0)
(3.24485e-08 -2.24826e-09 0)
(3.74454e-08 -2.25244e-09 0)
(4.24444e-08 -2.2569e-09 0)
(4.74454e-08 -2.26123e-09 0)
(2.49549e-09 -3.72685e-09 0)
(7.48663e-09 -3.72761e-09 0)
(1.24781e-08 -3.72934e-09 0)
(1.74701e-08 -3.73212e-09 0)
(2.24629e-08 -3.736e-09 0)
(2.74568e-08 -3.74102e-09 0)
(3.24521e-08 -3.7471e-09 0)
(3.74491e-08 -3.75407e-09 0)
(4.2448e-08 -3.76155e-09 0)
(4.74491e-08 -3.76918e-09 0)
(2.49607e-09 -5.2184e-09 0)
(7.48837e-09 -5.21943e-09 0)
(1.24809e-08 -5.22178e-09 0)
(1.74739e-08 -5.22553e-09 0)
(2.24676e-08 -5.23078e-09 0)
(2.74622e-08 -5.23759e-09 0)
(3.24579e-08 -5.24593e-09 0)
(3.7455e-08 -5.25562e-09 0)
(4.24539e-08 -5.26634e-09 0)
(4.7455e-08 -5.27746e-09 0)
(2.4969e-09 -6.71082e-09 0)
(7.49082e-09 -6.71209e-09 0)
(1.24849e-08 -6.71497e-09 0)
(1.74794e-08 -6.71955e-09 0)
(2.24743e-08 -6.72597e-09 0)
(2.74698e-08 -6.73435e-09 0)
(3.24661e-08 -6.74476e-09 0)
(3.74636e-08 -6.75709e-09 0)
(4.24625e-08 -6.77105e-09 0)
(4.74636e-08 -6.78619e-09 0)
(2.49797e-09 -8.20447e-09 0)
(7.49399e-09 -8.20592e-09 0)
(1.24901e-08 -8.2092e-09 0)
(1.74865e-08 -8.21442e-09 0)
(2.2483e-08 -8.22175e-09 0)
(2.74799e-08 -8.23142e-09 0)
(3.24773e-08 -8.24359e-09 0)
(3.74753e-08 -8.25834e-09 0)
(4.24745e-08 -8.27569e-09 0)
(4.74756e-08 -8.29526e-09 0)
(2.49927e-09 -9.69967e-09 0)
(7.49785e-09 -9.70124e-09 0)
(1.24965e-08 -9.70479e-09 0)
(1.74952e-08 -9.71043e-09 0)
(2.2494e-08 -9.71839e-09 0)
(2.74929e-08 -9.72896e-09 0)
(3.24918e-08 -9.74251e-09 0)
(3.74909e-08 -9.75941e-09 0)
(4.24906e-08 -9.78001e-09 0)
(4.74919e-08 -9.80442e-09 0)
(2.50076e-09 -1.11967e-08 0)
(7.50231e-09 -1.11984e-08 0)
(1.25039e-08 -1.12021e-08 0)
(1.75055e-08 -1.12079e-08 0)
(2.25072e-08 -1.12162e-08 0)
(2.75087e-08 -1.12273e-08 0)
(3.25099e-08 -1.12417e-08 0)
(3.75108e-08 -1.12602e-08 0)
(4.25117e-08 -1.12838e-08 0)
(4.75132e-08 -1.13133e-08 0)
(2.50235e-09 -1.26959e-08 0)
(7.50706e-09 -1.26975e-08 0)
(1.25119e-08 -1.27013e-08 0)
(1.75168e-08 -1.27073e-08 0)
(2.25218e-08 -1.27156e-08 0)
(2.75267e-08 -1.27268e-08 0)
(3.25313e-08 -1.27416e-08 0)
(3.75354e-08 -1.2761e-08 0)
(4.25386e-08 -1.27869e-08 0)
(4.7541e-08 -1.28213e-08 0)
(2.50376e-09 -1.41971e-08 0)
(7.51167e-09 -1.41988e-08 0)
(1.25198e-08 -1.42026e-08 0)
(1.75282e-08 -1.42086e-08 0)
(2.25368e-08 -1.4217e-08 0)
(2.75458e-08 -1.42282e-08 0)
(3.25551e-08 -1.42429e-08 0)
(3.75644e-08 -1.42625e-08 0)
(4.25729e-08 -1.42892e-08 0)
(4.75793e-08 -1.43274e-08 0)
)
;

boundaryField
{
    left
    {
        type            symmetryPlane;
    }
    right
    {
        type            tractionDisplacement;
        traction        uniform (10000 0 0);
        pressure        
        {
            type            uniform;
            value           0;
        }
        value           nonuniform List<vector> 10((4.99451e-08 -7.53992e-10 -2.16251e-29) (4.99467e-08 -2.26321e-09 -1.09753e-28) (4.99505e-08 -3.77278e-09 1.99781e-28) (4.99564e-08 -5.28286e-09 2.08203e-25) (4.99651e-08 -6.79379e-09 -4.21995e-28) (4.99771e-08 -8.30558e-09 0) (4.99933e-08 -9.81792e-09 -3.74587e-28) (5.00146e-08 -1.13302e-08 6.94042e-26) (5.00421e-08 -1.2842e-08 1.39384e-25) (5.00796e-08 -1.43539e-08 1.38804e-25));
    }
    down
    {
        type            symmetryPlane;
    }
    up
    {
        type            tractionDisplacement;
        traction        uniform (0 0 0);
        pressure        
        {
            type            uniform;
            value           0;
        }
        value           nonuniform List<vector> 10((2.50418e-09 -1.49484e-08 2.33666e-29) (7.51377e-09 -1.49501e-08 1.16242e-28) (1.25235e-08 -1.4954e-08 -4.1363e-28) (1.75335e-08 -1.496e-08 -4.16886e-26) (2.2544e-08 -1.49684e-08 7.98633e-28) (2.75553e-08 -1.49796e-08 -4.16937e-26) (3.25674e-08 -1.49944e-08 3.40808e-28) (3.75803e-08 -1.50139e-08 -1.99631e-26) (4.25933e-08 -1.50404e-08 -5.66868e-28) (4.76057e-08 -1.50778e-08 -1.46979e-27));
    }
    frontAndBack
    {
        type            empty;
    }
}


// ************************************************************************* //
