/*--------------------------------*- C++ -*----------------------------------*\
  =========                 |
  \\      /  F ield         | OpenFOAM: The Open Source CFD Toolbox
   \\    /   O peration     | Website:  https://openfoam.org
    \\  /    A nd           | Version:  11
     \\/     M anipulation  |
\*---------------------------------------------------------------------------*/
FoamFile
{
    format      ascii;
    class       volScalarField;
    location    "20";
    object      sigmazz;
}
// * * * * * * * * * * * * * * * * * * * * * * * * * * * * * * * * * * * * * //

dimensions      [1 -1 -2 0 0 0 0];

internalField   nonuniform List<scalar> 
100
(
2307.32
2307.31
2307.17
2306.94
2306.63
2306.23
2305.77
2305.24
2304.71
2304.16
2307.37
2307.36
2307.22
2306.99
2306.68
2306.28
2305.8
2305.25
2304.64
2303.92
2307.55
2307.54
2307.39
2307.16
2306.84
2306.43
2305.91
2305.28
2304.59
2303.77
2307.83
2307.82
2307.68
2307.44
2307.11
2306.67
2306.1
2305.4
2304.57
2303.55
2308.22
2308.2
2308.07
2307.84
2307.5
2307.04
2306.42
2305.6
2304.64
2303.36
2308.71
2308.69
2308.57
2308.36
2308.04
2307.57
2306.9
2306.02
2304.85
2303.23
2309.29
2309.27
2309.18
2309.01
2308.74
2308.31
2307.65
2306.68
2305.34
2303.31
2309.95
2309.95
2309.91
2309.81
2309.63
2309.29
2308.71
2307.77
2306.22
2303.65
2310.66
2310.7
2310.73
2310.74
2310.7
2310.54
2310.18
2309.37
2307.76
2304.51
2311.35
2311.54
2311.65
2311.78
2311.95
2312.12
2312.21
2311.98
2311.07
2307.73
)
;

boundaryField
{
    left
    {
        type            symmetryPlane;
    }
    right
    {
        type            calculated;
        value           nonuniform List<scalar> 10(2304.44 2304.25 2304.1 2303.93 2303.75 2303.64 2303.67 2303.9 2304.47 2306.5);
    }
    down
    {
        type            symmetryPlane;
    }
    up
    {
        type            calculated;
        value           nonuniform List<scalar> 10(2311.07 2311.24 2311.34 2311.46 2311.61 2311.76 2311.83 2311.68 2311.08 2308.91);
    }
    frontAndBack
    {
        type            empty;
    }
}


// ************************************************************************* //
