/*--------------------------------*- C++ -*----------------------------------*\
  =========                 |
  \\      /  F ield         | OpenFOAM: The Open Source CFD Toolbox
   \\    /   O peration     | Website:  https://openfoam.org
    \\  /    A nd           | Version:  11
     \\/     M anipulation  |
\*---------------------------------------------------------------------------*/
FoamFile
{
    format      ascii;
    class       volScalarField;
    location    "20";
    object      sigmaEq;
}
// * * * * * * * * * * * * * * * * * * * * * * * * * * * * * * * * * * * * * //

dimensions      [1 -1 -2 0 0 0 0];

internalField   nonuniform List<scalar> 
100
(
9044.23
9044.97
9046.45
9048.83
9052.18
9056.51
9061.76
9067.68
9073.93
9079.75
9044.95
9045.69
9047.12
9049.41
9052.62
9056.78
9061.85
9067.67
9073.97
9080.34
9046.5
9047.2
9048.53
9050.62
9053.54
9057.36
9062.09
9067.66
9074.06
9080.82
9049.02
9049.64
9050.77
9052.54
9055.02
9058.3
9062.49
9067.72
9074.08
9081.33
9052.58
9053.07
9053.94
9055.29
9057.18
9059.76
9063.21
9067.81
9074.04
9081.88
9057.22
9057.55
9058.14
9059.01
9060.24
9061.95
9064.44
9068.24
9074.02
9082.15
9062.88
9063.09
9063.42
9063.86
9064.43
9065.23
9066.62
9069.2
9074.09
9082.07
9069.41
9069.52
9069.71
9069.9
9069.98
9070.02
9070.23
9071.3
9074.51
9081.34
9076.36
9076.46
9076.7
9076.91
9076.94
9076.7
9076.22
9075.73
9076.1
9079.85
9082.76
9083.4
9083.81
9084.3
9084.86
9085.38
9085.54
9084.89
9082.68
9075.77
)
;

boundaryField
{
    left
    {
        type            symmetryPlane;
    }
    right
    {
        type            calculated;
        value           nonuniform List<scalar> 10(9080.4 9081.08 9081.58 9082.18 9082.77 9083.08 9082.88 9081.91 9079.77 9072.98);
    }
    down
    {
        type            symmetryPlane;
    }
    up
    {
        type            calculated;
        value           nonuniform List<scalar> 10(9083.2 9083.89 9084.3 9084.79 9085.39 9085.95 9086.14 9085.37 9082.68 9073.91);
    }
    frontAndBack
    {
        type            empty;
    }
}


// ************************************************************************* //
