/*--------------------------------*- C++ -*----------------------------------*\
  =========                 |
  \\      /  F ield         | OpenFOAM: The Open Source CFD Toolbox
   \\    /   O peration     | Website:  https://openfoam.org
    \\  /    A nd           | Version:  11
     \\/     M anipulation  |
\*---------------------------------------------------------------------------*/
FoamFile
{
    format      ascii;
    class       volScalarField;
    location    "20";
    object      sigmayz;
}
// * * * * * * * * * * * * * * * * * * * * * * * * * * * * * * * * * * * * * //

dimensions      [1 -1 -2 0 0 0 0];

internalField   nonuniform List<scalar> 
100
(
0
0
1.97833e-17
-6.37399e-14
-3.91888e-17
0
0
6.07341e-17
-6.41868e-14
-6.4365e-14
6.36585e-14
0
0
-6.37478e-14
0
0
0
-6.41206e-14
-6.42496e-14
-6.43839e-14
6.36668e-14
-5.31696e-17
0
0
6.38226e-14
0
-2.78717e-16
-7.15291e-29
-3.18039e-14
6.43979e-14
-6.37238e-14
-7.20484e-17
0
-3.16992e-14
-1.05814e-30
-3.23535e-16
0
3.18401e-14
4.66417e-16
6.98483e-16
-6.37538e-14
0
-7.95585e-17
6.3814e-14
-6.37005e-14
0
-2.42732e-16
-3.20548e-14
3.24361e-14
-6.44313e-14
0
0
1.81339e-16
1.59642e-13
-3.62989e-16
-6.39361e-14
-2.87452e-16
-3.20504e-14
3.94072e-16
0
0
0
-6.35069e-14
7.25122e-28
-6.51197e-14
-3.19815e-14
-3.20056e-14
3.2046e-14
-6.32639e-14
-3.2218e-14
6.39705e-14
-1.13921e-16
2.04154e-16
-6.39837e-14
-6.19364e-16
2.72223e-16
3.51936e-16
-4.49675e-16
-6.47645e-14
6.90215e-16
6.40365e-14
-1.15569e-16
6.42705e-14
6.4066e-14
6.32334e-14
3.2035e-14
3.2038e-14
-3.30168e-14
1.28675e-15
3.38465e-14
6.16657e-19
2.37568e-18
-3.79658e-18
2.13928e-14
-1.4689e-17
2.13926e-14
-1.67023e-17
1.06115e-14
1.12114e-16
5.4405e-16
)
;

boundaryField
{
    left
    {
        type            symmetryPlane;
    }
    right
    {
        type            calculated;
        value           nonuniform List<scalar> 10(-6.4365e-14 -6.43839e-14 6.43979e-14 6.98483e-16 -6.44313e-14 0 -3.2218e-14 6.90215e-16 3.38465e-14 5.4405e-16);
    }
    down
    {
        type            symmetryPlane;
    }
    up
    {
        type            calculated;
        value           nonuniform List<scalar> 10(1.25995e-17 6.1987e-17 -2.15914e-16 1.40189e-17 3.94866e-16 1.12042e-17 1.58071e-16 3.73975e-16 -1.78587e-16 -2.09688e-16);
    }
    frontAndBack
    {
        type            empty;
    }
}


// ************************************************************************* //
