/*--------------------------------*- C++ -*----------------------------------*\
  =========                 |
  \\      /  F ield         | OpenFOAM: The Open Source CFD Toolbox
   \\    /   O peration     | Website:  https://openfoam.org
    \\  /    A nd           | Version:  11
     \\/     M anipulation  |
\*---------------------------------------------------------------------------*/
FoamFile
{
    format      ascii;
    class       volScalarField;
    location    "20";
    object      sigmaxy;
}
// * * * * * * * * * * * * * * * * * * * * * * * * * * * * * * * * * * * * * //

dimensions      [1 -1 -2 0 0 0 0];

internalField   nonuniform List<scalar> 
100
(
-0.000381419
-0.076313
-0.157046
-0.257255
-0.373659
-0.499284
-0.618494
-0.687435
-0.66605
-0.352253
0.0827682
0.0187308
-0.0757668
-0.23494
-0.465605
-0.752477
-1.05209
-1.31013
-1.38949
-1.14063
0.169912
0.128847
0.046179
-0.151309
-0.479492
-0.925613
-1.43379
-1.88078
-2.13595
-1.96965
0.278415
0.313141
0.288333
0.106027
-0.271961
-0.841167
-1.54294
-2.28007
-2.81863
-2.8043
0.401933
0.566305
0.67075
0.581708
0.23615
-0.391498
-1.27882
-2.30526
-3.2725
-3.75179
0.538824
0.887551
1.18727
1.27794
1.06957
0.488706
-0.487607
-1.83916
-3.39252
-4.74524
0.670786
1.2293
1.76324
2.11187
2.15747
1.77085
0.832896
-0.757223
-3.0075
-5.63782
0.764208
1.49014
2.23422
2.86285
3.24504
3.21223
2.54085
0.929548
-1.91323
-5.97398
0.730692
1.52083
2.37228
3.1918
3.88731
4.31651
4.25089
3.17416
0.350032
-4.68533
0.372651
1.2247
2.06324
2.87831
3.71577
4.61406
5.49788
5.93219
4.73965
0.00913526
)
;

boundaryField
{
    left
    {
        type            symmetryPlane;
    }
    right
    {
        type            calculated;
        value           nonuniform List<scalar> 10(-0.208397 -1.04504 -1.85913 -2.72185 -3.76913 -5.02392 -6.29782 -7.08191 -6.50171 -3.77401);
    }
    down
    {
        type            symmetryPlane;
    }
    up
    {
        type            calculated;
        value           nonuniform List<scalar> 10(0.226972 1.11666 1.94478 2.72517 3.55664 4.54357 5.69512 6.67425 6.43427 3.7774);
    }
    frontAndBack
    {
        type            empty;
    }
}


// ************************************************************************* //
