/*--------------------------------*- C++ -*----------------------------------*\
  =========                 |
  \\      /  F ield         | OpenFOAM: The Open Source CFD Toolbox
   \\    /   O peration     | Website:  https://openfoam.org
    \\  /    A nd           | Version:  11
     \\/     M anipulation  |
\*---------------------------------------------------------------------------*/
FoamFile
{
    format      ascii;
    class       volSymmTensorField;
    location    "20";
    object      sigma;
}
// * * * * * * * * * * * * * * * * * * * * * * * * * * * * * * * * * * * * * //

dimensions      [1 -1 -2 0 0 0 0];

internalField   nonuniform List<symmTensor> 
100
(
(9984.24 -0.000381419 0 14.1617 0 2307.32)
(9984.66 -0.076313 0 13.6715 0 2307.31)
(9985.28 -0.157046 -2.1311e-13 12.4458 1.97833e-17 2307.17)
(9986.27 -0.257255 1.50649e-17 10.4678 -6.37399e-14 2306.94)
(9987.68 -0.373659 2.13192e-13 7.69784 -3.91888e-17 2306.63)
(9989.54 -0.499284 0 4.14421 0 2306.23)
(9991.8 -0.618494 0 -0.133134 0 2305.77)
(9994.34 -0.687435 -2.13415e-13 -4.96931 6.07341e-17 2305.24)
(9997.09 -0.66605 -2.13484e-13 -9.9983 -6.41868e-14 2304.71)
(9999.53 -0.352253 -4.78599e-19 -14.8313 -6.4365e-14 2304.16)
(9984.77 0.0827682 -1.10303e-17 13.8298 6.36585e-14 2307.37)
(9985.19 0.0187308 0 13.3548 0 2307.36)
(9985.78 -0.0757668 0 12.1562 0 2307.22)
(9986.72 -0.23494 7.40785e-17 10.2351 -6.37478e-14 2306.99)
(9988.05 -0.465605 0 7.55179 0 2306.68)
(9989.8 -0.752477 0 4.09463 0 2306.28)
(9991.92 -1.05209 0 -0.107146 0 2305.8)
(9994.36 -1.31013 1.1183e-16 -4.93949 -6.41206e-14 2305.25)
(9996.97 -1.38949 1.10596e-16 -10.1972 -6.42496e-14 2304.64)
(9999.42 -1.14063 -1.72787e-18 -15.7502 -6.43839e-14 2303.92)
(9986.06 0.169912 2.13101e-13 13.3217 6.36668e-14 2307.55)
(9986.46 0.128847 2.13133e-13 12.8654 -5.31696e-17 2307.54)
(9986.98 0.046179 0 11.7292 0 2307.39)
(9987.79 -0.151309 0 9.921 0 2307.16)
(9988.93 -0.479492 -1.6336e-16 7.39145 6.38226e-14 2306.84)
(9990.43 -0.925613 0 4.09502 0 2306.43)
(9992.27 -1.43379 2.13339e-13 0.00424496 -2.78717e-16 2305.91)
(9994.42 -1.88078 2.37166e-28 -4.85453 -7.15291e-29 2305.28)
(9996.93 -2.13595 -2.13403e-13 -10.3604 -3.18039e-14 2304.59)
(9999.4 -1.96965 7.50674e-19 -16.4129 6.43979e-14 2303.77)
(9988.14 0.278415 2.13201e-13 12.4691 -6.37238e-14 2307.83)
(9988.48 0.313141 2.13181e-13 12.0598 -7.20484e-17 2307.82)
(9988.89 0.288333 0 11.0415 0 2307.68)
(9989.5 0.106027 -2.13121e-13 9.42167 -3.16992e-14 2307.44)
(9990.35 -0.271961 8.76005e-28 7.14013 -1.05814e-30 2307.11)
(9991.47 -0.841167 2.13296e-13 4.10334 -3.23535e-16 2306.67)
(9992.89 -1.54294 0 0.211403 0 2306.1)
(9994.68 -2.28007 1.06556e-13 -4.61811 3.18401e-14 2305.4)
(9996.9 -2.81863 -2.13505e-13 -10.4336 4.66417e-16 2304.57)
(9999.29 -2.8043 -1.06858e-13 -17.2246 6.98483e-16 2303.55)
(9991.05 0.401933 4.03894e-17 11.2476 -6.37538e-14 2308.22)
(9991.3 0.566305 0 10.9013 0 2308.2)
(9991.57 0.67075 1.0663e-13 10.0493 -7.95585e-17 2308.07)
(9991.94 0.581708 -2.6718e-16 8.69448 6.3814e-14 2307.84)
(9992.43 0.23615 -1.0632e-13 6.75836 -6.37005e-14 2307.5)
(9993.08 -0.391498 0 4.1014 0 2307.04)
(9993.94 -1.27882 1.06686e-13 0.531721 -2.42732e-16 2306.42)
(9995.12 -2.30526 2.16754e-16 -4.19046 -3.20548e-14 2305.6)
(9997.01 -3.2725 -1.06973e-13 -10.2492 3.24361e-14 2304.64)
(9999.25 -3.75179 7.17894e-18 -18.0231 -6.44313e-14 2303.36)
(9994.8 0.538824 0 9.59475 0 2308.71)
(9994.97 0.887551 0 9.3414 0 2308.69)
(9995.08 1.18727 -2.13344e-13 8.69939 1.81339e-16 2308.57)
(9995.2 1.27794 -8.47335e-16 7.67939 1.59642e-13 2308.36)
(9995.32 1.06957 2.13365e-13 6.17593 -3.62989e-16 2308.04)
(9995.44 0.488706 4.93309e-16 4.0314 -6.39361e-14 2307.57)
(9995.64 -0.487607 1.06703e-13 0.937021 -2.87452e-16 2306.9)
(9996.21 -1.83916 2.91712e-16 -3.45355 -3.20504e-14 2306.02)
(9997.42 -3.39252 -1.06756e-13 -9.72691 3.94072e-16 2304.85)
(9999.16 -4.74524 0 -18.486 0 2303.23)
(9999.36 0.670786 0 7.54448 0 2309.29)
(9999.46 1.2293 0 7.38475 0 2309.27)
(9999.48 1.76324 -4.26603e-13 6.97323 -6.35069e-14 2309.18)
(9999.42 2.11187 -9.99926e-28 6.30406 7.25122e-28 2309.01)
(9999.22 2.15747 6.40877e-13 5.3111 -6.51197e-14 2308.74)
(9998.87 1.77085 3.06653e-16 3.79985 -3.19815e-14 2308.31)
(9998.43 0.832896 3.48196e-16 1.4059 -3.20056e-14 2307.65)
(9998.07 -0.757223 -3.79257e-16 -2.47881 3.2046e-14 2306.68)
(9998.41 -3.0075 -2.12732e-13 -8.61327 -6.32639e-14 2305.34)
(9999.26 -5.63782 1.72962e-17 -18.2405 -3.2218e-14 2303.31)
(10004.6 0.764208 -6.57767e-17 5.16528 6.39705e-14 2309.95)
(10004.7 1.49014 2.13572e-13 5.11233 -1.13921e-16 2309.95)
(10004.7 2.23422 -2.13574e-13 4.90838 2.04154e-16 2309.91)
(10004.6 2.86285 4.60751e-16 4.55908 -6.39837e-14 2309.81)
(10004.3 3.24504 3.20356e-13 4.07808 -6.19364e-16 2309.63)
(10003.7 3.21223 -1.06781e-13 3.25291 2.72223e-16 2309.29)
(10002.7 2.54085 -1.06775e-13 1.73984 3.51936e-16 2308.71)
(10001.5 0.929548 1.06772e-13 -1.15565 -4.49675e-16 2307.77)
(10000.4 -1.91323 1.07804e-13 -6.76884 -6.47645e-14 2306.22)
(9999.47 -5.97398 -3.56173e-14 -17.0076 6.90215e-16 2303.65)
(10010.2 0.730692 2.13641e-13 2.65606 6.40365e-14 2310.66)
(10010.3 1.52083 2.13708e-13 2.70029 -1.15569e-16 2310.7)
(10010.5 2.37228 -2.14052e-13 2.62336 6.42705e-14 2310.73)
(10010.7 3.1918 -4.82725e-16 2.51978 6.4066e-14 2310.74)
(10010.6 3.88731 4.26799e-13 2.39812 6.32334e-14 2310.7)
(10010.2 4.31651 -3.96991e-16 2.17896 3.2035e-14 2310.54)
(10009.2 4.25089 -4.83032e-16 1.5994 3.2038e-14 2310.18)
(10007.3 3.17416 2.14232e-13 -0.0269289 -3.30168e-14 2309.37)
(10004.4 0.350032 -2.13624e-13 -4.07904 1.28675e-15 2307.76)
(10000.3 -4.68533 -7.13476e-14 -14.0672 3.38465e-14 2304.51)
(10015.4 0.372651 2.13831e-13 0.435054 6.16657e-19 2311.35)
(10016.2 1.2247 2.13847e-13 0.504192 2.37568e-18 2311.54)
(10016.6 2.06324 -4.27713e-13 0.499513 -3.79658e-18 2311.65)
(10017.2 2.87831 -4.66898e-16 0.518079 2.13928e-14 2311.78)
(10017.9 3.71577 4.27764e-13 0.572919 -1.4689e-17 2311.95)
(10018.5 4.61406 -8.0834e-16 0.682545 2.13926e-14 2312.12)
(10018.8 5.49788 1.0695e-13 0.782739 -1.67023e-17 2312.21)
(10017.9 5.93219 2.13224e-13 0.650288 1.06115e-14 2311.98)
(10014.8 4.73965 -1.06911e-13 -0.181515 1.12114e-16 2311.07)
(10004.1 0.00913526 -7.12546e-14 -3.93919 5.4405e-16 2307.73)
)
;

boundaryField
{
    left
    {
        type            symmetryPlane;
    }
    right
    {
        type            calculated;
        value           nonuniform List<symmTensor> 10((10000.5 -0.208397 -1.15684e-17 -14.5483 -6.4365e-14 2304.44) (10000.5 -1.04504 -5.80115e-17 -15.4249 -6.43839e-14 2304.25) (10000.5 -1.85913 1.03202e-16 -16.0766 6.43979e-14 2304.1) (10000.5 -2.72185 -8.76894e-17 -16.8503 6.98483e-16 2303.93) (10000.5 -3.76913 -2.09229e-16 -17.6334 -6.44313e-14 2303.75) (10000.5 -5.02392 0 -18.0772 0 2303.64) (10000.4 -6.29782 -1.748e-16 -17.8854 -3.2218e-14 2303.67) (10000.3 -7.08191 -2.53784e-17 -16.7557 6.90215e-16 2303.9) (10000.1 -6.50171 1.31121e-16 -14.1044 3.38465e-14 2304.47) (10000 -3.77401 -7.31338e-17 -5.16799 5.4405e-16 2306.5));
    }
    down
    {
        type            symmetryPlane;
    }
    up
    {
        type            calculated;
        value           nonuniform List<symmTensor> 10((10015.1 0.226972 2.13831e-13 -0.492106 1.25995e-17 2311.07) (10015.9 1.11666 2.13847e-13 -0.51871 6.1987e-17 2311.24) (10016.3 1.94478 -4.27713e-13 -0.525397 -2.15914e-16 2311.34) (10016.9 2.72517 -4.66898e-16 -0.530196 1.40189e-17 2311.46) (10017.5 3.55664 4.27764e-13 -0.532164 3.94866e-16 2311.61) (10018.1 4.54357 -8.0834e-16 -0.519642 1.12042e-17 2311.76) (10018.4 5.69512 1.0695e-13 -0.469573 1.58071e-16 2311.83) (10017.6 6.67425 2.13224e-13 -0.3529 3.73975e-16 2311.68) (10014.8 6.43427 -1.06911e-13 -0.168638 -1.78587e-16 2311.08) (10005.3 3.7774 -7.12546e-14 -0.0226229 -2.09688e-16 2308.91));
    }
    frontAndBack
    {
        type            empty;
    }
}


// ************************************************************************* //
