/*--------------------------------*- C++ -*----------------------------------*\
  =========                 |
  \\      /  F ield         | OpenFOAM: The Open Source CFD Toolbox
   \\    /   O peration     | Website:  https://openfoam.org
    \\  /    A nd           | Version:  11
     \\/     M anipulation  |
\*---------------------------------------------------------------------------*/
FoamFile
{
    format      ascii;
    class       volScalarField;
    location    "20";
    object      sigmaxz;
}
// * * * * * * * * * * * * * * * * * * * * * * * * * * * * * * * * * * * * * //

dimensions      [1 -1 -2 0 0 0 0];

internalField   nonuniform List<scalar> 
100
(
0
0
-2.1311e-13
1.50649e-17
2.13192e-13
0
0
-2.13415e-13
-2.13484e-13
-4.78599e-19
-1.10303e-17
0
0
7.40785e-17
0
0
0
1.1183e-16
1.10596e-16
-1.72787e-18
2.13101e-13
2.13133e-13
0
0
-1.6336e-16
0
2.13339e-13
2.37166e-28
-2.13403e-13
7.50674e-19
2.13201e-13
2.13181e-13
0
-2.13121e-13
8.76005e-28
2.13296e-13
0
1.06556e-13
-2.13505e-13
-1.06858e-13
4.03894e-17
0
1.0663e-13
-2.6718e-16
-1.0632e-13
0
1.06686e-13
2.16754e-16
-1.06973e-13
7.17894e-18
0
0
-2.13344e-13
-8.47335e-16
2.13365e-13
4.93309e-16
1.06703e-13
2.91712e-16
-1.06756e-13
0
0
0
-4.26603e-13
-9.99926e-28
6.40877e-13
3.06653e-16
3.48196e-16
-3.79257e-16
-2.12732e-13
1.72962e-17
-6.57767e-17
2.13572e-13
-2.13574e-13
4.60751e-16
3.20356e-13
-1.06781e-13
-1.06775e-13
1.06772e-13
1.07804e-13
-3.56173e-14
2.13641e-13
2.13708e-13
-2.14052e-13
-4.82725e-16
4.26799e-13
-3.96991e-16
-4.83032e-16
2.14232e-13
-2.13624e-13
-7.13476e-14
2.13831e-13
2.13847e-13
-4.27713e-13
-4.66898e-16
4.27764e-13
-8.0834e-16
1.0695e-13
2.13224e-13
-1.06911e-13
-7.12546e-14
)
;

boundaryField
{
    left
    {
        type            symmetryPlane;
    }
    right
    {
        type            calculated;
        value           nonuniform List<scalar> 10(-1.15684e-17 -5.80115e-17 1.03202e-16 -8.76894e-17 -2.09229e-16 0 -1.748e-16 -2.53784e-17 1.31121e-16 -7.31338e-17);
    }
    down
    {
        type            symmetryPlane;
    }
    up
    {
        type            calculated;
        value           nonuniform List<scalar> 10(2.13831e-13 2.13847e-13 -4.27713e-13 -4.66898e-16 4.27764e-13 -8.0834e-16 1.0695e-13 2.13224e-13 -1.06911e-13 -7.12546e-14);
    }
    frontAndBack
    {
        type            empty;
    }
}


// ************************************************************************* //
