/*--------------------------------*- C++ -*----------------------------------*\
  =========                 |
  \\      /  F ield         | OpenFOAM: The Open Source CFD Toolbox
   \\    /   O peration     | Website:  https://openfoam.org
    \\  /    A nd           | Version:  11
     \\/     M anipulation  |
\*---------------------------------------------------------------------------*/
FoamFile
{
    format      ascii;
    class       volScalarField;
    location    "20";
    object      sigmayy;
}
// * * * * * * * * * * * * * * * * * * * * * * * * * * * * * * * * * * * * * //

dimensions      [1 -1 -2 0 0 0 0];

internalField   nonuniform List<scalar> 
100
(
14.1617
13.6715
12.4458
10.4678
7.69784
4.14421
-0.133134
-4.96931
-9.9983
-14.8313
13.8298
13.3548
12.1562
10.2351
7.55179
4.09463
-0.107146
-4.93949
-10.1972
-15.7502
13.3217
12.8654
11.7292
9.921
7.39145
4.09502
0.00424496
-4.85453
-10.3604
-16.4129
12.4691
12.0598
11.0415
9.42167
7.14013
4.10334
0.211403
-4.61811
-10.4336
-17.2246
11.2476
10.9013
10.0493
8.69448
6.75836
4.1014
0.531721
-4.19046
-10.2492
-18.0231
9.59475
9.3414
8.69939
7.67939
6.17593
4.0314
0.937021
-3.45355
-9.72691
-18.486
7.54448
7.38475
6.97323
6.30406
5.3111
3.79985
1.4059
-2.47881
-8.61327
-18.2405
5.16528
5.11233
4.90838
4.55908
4.07808
3.25291
1.73984
-1.15565
-6.76884
-17.0076
2.65606
2.70029
2.62336
2.51978
2.39812
2.17896
1.5994
-0.0269289
-4.07904
-14.0672
0.435054
0.504192
0.499513
0.518079
0.572919
0.682545
0.782739
0.650288
-0.181515
-3.93919
)
;

boundaryField
{
    left
    {
        type            symmetryPlane;
    }
    right
    {
        type            calculated;
        value           nonuniform List<scalar> 10(-14.5483 -15.4249 -16.0766 -16.8503 -17.6334 -18.0772 -17.8854 -16.7557 -14.1044 -5.16799);
    }
    down
    {
        type            symmetryPlane;
    }
    up
    {
        type            calculated;
        value           nonuniform List<scalar> 10(-0.492106 -0.51871 -0.525397 -0.530196 -0.532164 -0.519642 -0.469573 -0.3529 -0.168638 -0.0226229);
    }
    frontAndBack
    {
        type            empty;
    }
}


// ************************************************************************* //
