/*--------------------------------*- C++ -*----------------------------------*\
  =========                 |
  \\      /  F ield         | OpenFOAM: The Open Source CFD Toolbox
   \\    /   O peration     | Website:  https://openfoam.org
    \\  /    A nd           | Version:  11
     \\/     M anipulation  |
\*---------------------------------------------------------------------------*/
FoamFile
{
    format      ascii;
    class       volScalarField;
    location    "20";
    object      sigmaxx;
}
// * * * * * * * * * * * * * * * * * * * * * * * * * * * * * * * * * * * * * //

dimensions      [1 -1 -2 0 0 0 0];

internalField   nonuniform List<scalar> 
100
(
9984.24
9984.66
9985.28
9986.27
9987.68
9989.54
9991.8
9994.34
9997.09
9999.53
9984.77
9985.19
9985.78
9986.72
9988.05
9989.8
9991.92
9994.36
9996.97
9999.42
9986.06
9986.46
9986.98
9987.79
9988.93
9990.43
9992.27
9994.42
9996.93
9999.4
9988.14
9988.48
9988.89
9989.5
9990.35
9991.47
9992.89
9994.68
9996.9
9999.29
9991.05
9991.3
9991.57
9991.94
9992.43
9993.08
9993.94
9995.12
9997.01
9999.25
9994.8
9994.97
9995.08
9995.2
9995.32
9995.44
9995.64
9996.21
9997.42
9999.16
9999.36
9999.46
9999.48
9999.42
9999.22
9998.87
9998.43
9998.07
9998.41
9999.26
10004.6
10004.7
10004.7
10004.6
10004.3
10003.7
10002.7
10001.5
10000.4
9999.47
10010.2
10010.3
10010.5
10010.7
10010.6
10010.2
10009.2
10007.3
10004.4
10000.3
10015.4
10016.2
10016.6
10017.2
10017.9
10018.5
10018.8
10017.9
10014.8
10004.1
)
;

boundaryField
{
    left
    {
        type            symmetryPlane;
    }
    right
    {
        type            calculated;
        value           nonuniform List<scalar> 10(10000.5 10000.5 10000.5 10000.5 10000.5 10000.5 10000.4 10000.3 10000.1 10000);
    }
    down
    {
        type            symmetryPlane;
    }
    up
    {
        type            calculated;
        value           nonuniform List<scalar> 10(10015.1 10015.9 10016.3 10016.9 10017.5 10018.1 10018.4 10017.6 10014.8 10005.3);
    }
    frontAndBack
    {
        type            empty;
    }
}


// ************************************************************************* //
