/*--------------------------------*- C++ -*----------------------------------*\
  =========                 |
  \\      /  F ield         | OpenFOAM: The Open Source CFD Toolbox
   \\    /   O peration     | Website:  https://openfoam.org
    \\  /    A nd           | Version:  11
     \\/     M anipulation  |
\*---------------------------------------------------------------------------*/
FoamFile
{
    format      ascii;
    class       volVectorField;
    location    "80";
    object      D;
}
// * * * * * * * * * * * * * * * * * * * * * * * * * * * * * * * * * * * * * //

dimensions      [0 1 0 0 0 0 0];

internalField   nonuniform List<vector> 
100
(
(2.49994e-09 -7.4995e-10 0)
(7.49983e-09 -7.49952e-10 0)
(1.24997e-08 -7.49957e-10 0)
(1.74996e-08 -7.49964e-10 0)
(2.24995e-08 -7.49975e-10 0)
(2.74995e-08 -7.49988e-10 0)
(3.24994e-08 -7.50003e-10 0)
(3.74994e-08 -7.50018e-10 0)
(4.24994e-08 -7.50032e-10 0)
(4.74994e-08 -7.50041e-10 0)
(2.49994e-09 -2.24985e-09 0)
(7.49983e-09 -2.24986e-09 0)
(1.24997e-08 -2.24987e-09 0)
(1.74996e-08 -2.24989e-09 0)
(2.24995e-08 -2.24992e-09 0)
(2.74995e-08 -2.24996e-09 0)
(3.24994e-08 -2.25001e-09 0)
(3.74994e-08 -2.25005e-09 0)
(4.24994e-08 -2.2501e-09 0)
(4.74994e-08 -2.25013e-09 0)
(2.49995e-09 -3.74975e-09 0)
(7.49985e-09 -3.74976e-09 0)
(1.24997e-08 -3.74979e-09 0)
(1.74997e-08 -3.74982e-09 0)
(2.24996e-08 -3.74987e-09 0)
(2.74995e-08 -3.74993e-09 0)
(3.24994e-08 -3.75001e-09 0)
(3.74994e-08 -3.75009e-09 0)
(4.24994e-08 -3.75017e-09 0)
(4.74994e-08 -3.75022e-09 0)
(2.49996e-09 -5.24966e-09 0)
(7.49987e-09 -5.24968e-09 0)
(1.24998e-08 -5.2497e-09 0)
(1.74997e-08 -5.24975e-09 0)
(2.24996e-08 -5.24981e-09 0)
(2.74995e-08 -5.2499e-09 0)
(3.24995e-08 -5.25001e-09 0)
(3.74994e-08 -5.25013e-09 0)
(4.24994e-08 -5.25024e-09 0)
(4.74995e-08 -5.25033e-09 0)
(2.49997e-09 -6.74959e-09 0)
(7.4999e-09 -6.7496e-09 0)
(1.24998e-08 -6.74963e-09 0)
(1.74998e-08 -6.74968e-09 0)
(2.24997e-08 -6.74975e-09 0)
(2.74996e-08 -6.74985e-09 0)
(3.24996e-08 -6.74999e-09 0)
(3.74995e-08 -6.75016e-09 0)
(4.24995e-08 -6.75032e-09 0)
(4.74995e-08 -6.75045e-09 0)
(2.49998e-09 -8.24952e-09 0)
(7.49995e-09 -8.24953e-09 0)
(1.24999e-08 -8.24956e-09 0)
(1.74999e-08 -8.24961e-09 0)
(2.24998e-08 -8.24968e-09 0)
(2.74998e-08 -8.2498e-09 0)
(3.24997e-08 -8.24996e-09 0)
(3.74996e-08 -8.25017e-09 0)
(4.24996e-08 -8.2504e-09 0)
(4.74996e-08 -8.2506e-09 0)
(2.5e-09 -9.74948e-09 0)
(7.5e-09 -9.74949e-09 0)
(1.25e-08 -9.74951e-09 0)
(1.75e-08 -9.74956e-09 0)
(2.25e-08 -9.74962e-09 0)
(2.74999e-08 -9.74973e-09 0)
(3.24999e-08 -9.7499e-09 0)
(3.74998e-08 -9.75016e-09 0)
(4.24997e-08 -9.75048e-09 0)
(4.74997e-08 -9.75079e-09 0)
(2.50002e-09 -1.12495e-08 0)
(7.50006e-09 -1.12495e-08 0)
(1.25001e-08 -1.12495e-08 0)
(1.75001e-08 -1.12495e-08 0)
(2.25002e-08 -1.12496e-08 0)
(2.75002e-08 -1.12497e-08 0)
(3.25002e-08 -1.12498e-08 0)
(3.75001e-08 -1.12501e-08 0)
(4.25e-08 -1.12505e-08 0)
(4.75e-08 -1.1251e-08 0)
(2.50004e-09 -1.27495e-08 0)
(7.50011e-09 -1.27495e-08 0)
(1.25002e-08 -1.27495e-08 0)
(1.75003e-08 -1.27495e-08 0)
(2.25004e-08 -1.27496e-08 0)
(2.75005e-08 -1.27496e-08 0)
(3.25005e-08 -1.27498e-08 0)
(3.75006e-08 -1.275e-08 0)
(4.25006e-08 -1.27505e-08 0)
(4.75005e-08 -1.27513e-08 0)
(2.50005e-09 -1.42495e-08 0)
(7.50015e-09 -1.42495e-08 0)
(1.25003e-08 -1.42495e-08 0)
(1.75004e-08 -1.42495e-08 0)
(2.25005e-08 -1.42496e-08 0)
(2.75007e-08 -1.42497e-08 0)
(3.25009e-08 -1.42498e-08 0)
(3.75011e-08 -1.425e-08 0)
(4.25015e-08 -1.42504e-08 0)
(4.75018e-08 -1.42516e-08 0)
)
;

boundaryField
{
    left
    {
        type            symmetryPlane;
    }
    right
    {
        type            tractionDisplacement;
        traction        uniform (10000 0 0);
        pressure        
        {
            type            uniform;
            value           0;
        }
        value           nonuniform List<vector> 10((4.99994e-08 -7.50043e-10 -9.21478e-32) (4.99994e-08 -2.25014e-09 -4.55755e-31) (4.99994e-08 -3.75024e-09 8.18271e-31) (4.99995e-08 -5.25035e-09 2.08168e-25) (4.99995e-08 -6.75048e-09 -1.86116e-30) (4.99996e-08 -8.25066e-09 0) (4.99997e-08 -9.7509e-09 -2.84234e-30) (5e-08 -1.12513e-08 6.93896e-26) (5.00006e-08 -1.27519e-08 1.38794e-25) (5.00018e-08 -1.42528e-08 1.38782e-25));
    }
    down
    {
        type            symmetryPlane;
    }
    up
    {
        type            tractionDisplacement;
        traction        uniform (0 0 0);
        pressure        
        {
            type            uniform;
            value           0;
        }
        value           nonuniform List<vector> 10((2.50005e-09 -1.49995e-08 9.51792e-32) (7.50015e-09 -1.49995e-08 4.69468e-31) (1.25003e-08 -1.49995e-08 -1.69131e-30) (1.75004e-08 -1.49996e-08 -4.16345e-26) (2.25005e-08 -1.49996e-08 3.61144e-30) (2.75007e-08 -1.49997e-08 -4.16348e-26) (3.2501e-08 -1.49998e-08 2.39942e-30) (3.75013e-08 -1.5e-08 -2.08066e-26) (4.2502e-08 -1.50005e-08 -1.36789e-29) (4.75029e-08 -1.50017e-08 -6.30809e-29));
    }
    frontAndBack
    {
        type            empty;
    }
}


// ************************************************************************* //
