/*--------------------------------*- C++ -*----------------------------------*\
  =========                 |
  \\      /  F ield         | OpenFOAM: The Open Source CFD Toolbox
   \\    /   O peration     | Website:  https://openfoam.org
    \\  /    A nd           | Version:  11
     \\/     M anipulation  |
\*---------------------------------------------------------------------------*/
FoamFile
{
    format      ascii;
    class       volSymmTensorField;
    location    "80";
    object      sigma;
}
// * * * * * * * * * * * * * * * * * * * * * * * * * * * * * * * * * * * * * //

dimensions      [1 -1 -2 0 0 0 0];

internalField   nonuniform List<symmTensor> 
100
(
(9999.81 3.26318e-06 0 0.143055 0 2307.68)
(9999.81 -0.00107767 0 0.136457 0 2307.68)
(9999.82 -0.0023266 -2.135e-13 0.120342 2.63893e-19 2307.68)
(9999.84 -0.00398834 1.64221e-19 0.0947416 -6.40483e-14 2307.68)
(9999.86 -0.00597079 2.13501e-13 0.0593505 -5.0414e-19 2307.67)
(9999.88 -0.00788617 0 0.0149707 0 2307.67)
(9999.92 -0.00911988 0 -0.0357367 0 2307.66)
(9999.95 -0.0089344 -2.13504e-13 -0.0879453 6.17688e-19 2307.66)
(9999.98 -0.00679792 -2.13505e-13 -0.134669 -6.40536e-14 2307.66)
(10000 -0.00184393 3.39881e-20 -0.168609 -6.40549e-14 2307.65)
(9999.82 0.00119232 -1.52779e-19 0.140439 6.40472e-14 2307.68)
(9999.82 0.000280179 0 0.134653 0 2307.68)
(9999.83 -0.00158899 0 0.120252 0 2307.68)
(9999.84 -0.00537241 8.30486e-19 0.0968093 -6.40482e-14 2307.68)
(9999.86 -0.0110249 0 0.0632549 0 2307.67)
(9999.88 -0.0174313 0 0.0194163 0 2307.67)
(9999.91 -0.0223971 0 -0.0329013 0 2307.66)
(9999.95 -0.0232947 6.23406e-19 -0.0890677 -6.40529e-14 2307.66)
(9999.98 -0.0177529 5.82082e-19 -0.141375 -6.40542e-14 2307.65)
(10000 -0.0048618 1.67264e-19 -0.18124 -6.40552e-14 2307.65)
(9999.83 0.00267912 2.135e-13 0.136029 6.40472e-14 2307.69)
(9999.84 0.00284431 2.135e-13 0.131439 -6.56791e-19 2307.69)
(9999.84 0.00129694 0 0.119837 0 2307.68)
(9999.85 -0.00381045 0 0.100091 0 2307.68)
(9999.86 -0.0128062 -1.72055e-18 0.0700771 6.40489e-14 2307.68)
(9999.88 -0.0242293 0 0.0279565 0 2307.67)
(9999.91 -0.0344669 2.13503e-13 -0.0263387 -3.36765e-18 2307.67)
(9999.94 -0.0382666 2.37038e-28 -0.0891868 -7.11167e-29 2307.66)
(9999.97 -0.0306497 -2.13504e-13 -0.151466 -3.20244e-14 2307.65)
(10000 -0.00881441 -2.99305e-19 -0.199638 6.40556e-14 2307.65)
(9999.86 0.00472355 2.13501e-13 0.127577 -6.40479e-14 2307.69)
(9999.86 0.00772733 2.13501e-13 0.124776 -8.12442e-19 2307.69)
(9999.86 0.00827319 0 0.117384 0 2307.69)
(9999.86 0.00362228 -2.135e-13 0.103615 -3.20218e-14 2307.68)
(9999.87 -0.00756341 8.77025e-28 0.0801326 -1.33227e-32 2307.68)
(9999.88 -0.0242795 2.13502e-13 0.042596 -4.16689e-18 2307.67)
(9999.9 -0.0421659 0 -0.0127555 0 2307.67)
(9999.93 -0.0529553 1.06751e-13 -0.0852814 3.20238e-14 2307.66)
(9999.97 -0.0459695 -2.13505e-13 -0.164561 4.27709e-18 2307.65)
(9999.99 -0.0136576 -1.06753e-13 -0.230799 3.74392e-18 2307.64)
(9999.91 0.00720341 5.7395e-19 0.113919 -6.40483e-14 2307.7)
(9999.9 0.0148064 0 0.113121 0 2307.7)
(9999.9 0.019687 1.06751e-13 0.110701 -8.21975e-19 2307.69)
(9999.89 0.0182698 -3.62962e-18 0.104739 6.40484e-14 2307.69)
(9999.88 0.00778856 -1.06746e-13 0.0913568 -6.40467e-14 2307.69)
(9999.88 -0.012754 0 0.0635944 0 2307.68)
(9999.89 -0.0400442 1.06751e-13 0.0119065 -3.21673e-18 2307.67)
(9999.91 -0.0628496 1.76102e-18 -0.0706209 -3.20261e-14 2307.66)
(9999.95 -0.0629979 -1.06754e-13 -0.177533 3.20306e-14 2307.64)
(9999.99 -0.0206053 7.04951e-19 -0.278696 -6.40572e-14 2307.63)
(9999.96 0.00967157 0 0.0942971 0 2307.71)
(9999.96 0.0228208 0 0.0952873 0 2307.7)
(9999.95 0.0338556 -2.13503e-13 0.0974463 1.59604e-18 2307.7)
(9999.93 0.0390217 -1.1975e-17 0.0997152 1.60122e-13 2307.7)
(9999.91 0.0342131 2.13502e-13 0.099139 -4.04009e-18 2307.7)
(9999.89 0.0149972 6.71669e-18 0.0878583 -6.40487e-14 2307.69)
(9999.87 -0.0194658 1.06751e-13 0.0494196 -3.96582e-18 2307.67)
(9999.88 -0.0598697 3.07432e-18 -0.0364218 -3.20257e-14 2307.66)
(9999.92 -0.0777133 -1.06752e-13 -0.179707 4.61408e-18 2307.63)
(9999.98 -0.0293673 0 -0.350799 0 2307.61)
(10000 0.0113283 0 0.0697589 0 2307.71)
(10000 0.029173 0 0.0717563 0 2307.71)
(10000 0.0463482 -4.27005e-13 0.0765985 -6.4047e-14 2307.71)
(10000 0.060329 -9.9562e-28 0.084735 7.25325e-28 2307.71)
(9999.97 0.0667089 6.40517e-13 0.095992 -6.40605e-14 2307.71)
(9999.93 0.0580091 4.60689e-18 0.104864 -3.20243e-14 2307.7)
(9999.88 0.026076 5.23396e-18 0.0939854 -3.20243e-14 2307.69)
(9999.85 -0.0279763 -5.32484e-18 0.0255972 3.20249e-14 2307.66)
(9999.87 -0.074759 -2.13493e-13 -0.151283 -6.40401e-14 2307.63)
(9999.95 -0.0417835 1.10432e-18 -0.450894 -3.20303e-14 2307.58)
(10000.1 0.0112677 -7.48431e-19 0.0432927 6.4051e-14 2307.72)
(10000.1 0.0303091 2.13506e-13 0.0453586 -6.18365e-19 2307.72)
(10000.1 0.0505405 -2.13506e-13 0.0501125 1.17924e-18 2307.73)
(10000.1 0.0715362 5.91727e-18 0.0593306 -6.40506e-14 2307.73)
(10000.1 0.0908354 3.20258e-13 0.075915 -4.77119e-18 2307.73)
(10000 0.101803 -1.06752e-13 0.100627 2.6742e-18 2307.72)
(9999.96 0.0910307 -1.06751e-13 0.125508 4.54082e-18 2307.71)
(9999.88 0.0425384 1.06751e-13 0.108111 -7.32271e-18 2307.69)
(9999.83 -0.0348535 1.06769e-13 -0.0658737 -6.40617e-14 2307.64)
(9999.91 -0.0529347 -3.55843e-14 -0.571621 1.00012e-17 2307.54)
(10000.2 0.0085905 2.13507e-13 0.0198929 6.40518e-14 2307.73)
(10000.2 0.0231954 2.13508e-13 0.0214508 -5.8067e-19 2307.73)
(10000.2 0.0399866 -2.13511e-13 0.0241812 6.4053e-14 2307.74)
(10000.2 0.0599969 -4.9978e-18 0.0304022 6.40518e-14 2307.74)
(10000.2 0.084129 4.27009e-13 0.0433108 6.40465e-14 2307.75)
(10000.2 0.110923 -5.20039e-18 0.0695397 3.20256e-14 2307.75)
(10000.2 0.13088 -7.56304e-18 0.114578 3.2025e-14 2307.76)
(10000.1 0.118853 2.13516e-13 0.154981 -3.20397e-14 2307.75)
(9999.94 0.0488562 -2.13503e-13 0.0565471 2.83502e-17 2307.69)
(9999.9 -0.0410325 -7.11734e-14 -0.634955 3.20738e-14 2307.52)
(10000.2 0.00231326 2.13509e-13 0.00500548 -3.08912e-20 2307.74)
(10000.2 0.00654496 2.13509e-13 0.00578942 -1.51639e-19 2307.74)
(10000.2 0.0115426 -4.27018e-13 0.00662521 5.47909e-19 2307.75)
(10000.3 0.0177694 -2.69985e-18 0.00873464 2.13508e-14 2307.75)
(10000.3 0.0263574 4.27022e-13 0.0135856 -1.20434e-18 2307.77)
(10000.4 0.0394119 -5.85425e-18 0.0254891 2.13508e-14 2307.79)
(10000.5 0.0591864 1.06757e-13 0.0520052 -7.69285e-19 2307.82)
(10000.6 0.0826429 2.13508e-13 0.0975397 1.06722e-14 2307.86)
(10000.7 0.0911194 -1.06759e-13 0.109405 3.8847e-18 2307.88)
(10000.2 0.0189819 -7.11695e-14 -0.193707 1.73714e-17 2307.7)
)
;

boundaryField
{
    left
    {
        type            symmetryPlane;
    }
    right
    {
        type            calculated;
        value           nonuniform List<symmTensor> 10((10000 -0.000239001 -1.32672e-20 -0.167087 -6.40549e-14 2307.65) (10000 -0.00119717 -6.64564e-20 -0.179456 -6.40552e-14 2307.65) (10000 -0.00216752 1.20321e-19 -0.19759 6.40556e-14 2307.65) (10000 -0.00322585 2.93846e-19 -0.2279 3.74392e-18 2307.64) (10000 -0.00449437 -2.49488e-19 -0.274093 -6.40572e-14 2307.63) (10000 -0.00672187 0 -0.341952 0 2307.61) (10000 -0.0127285 -3.53286e-19 -0.434516 -3.20303e-14 2307.59) (10000 -0.0323221 1.55651e-19 -0.54083 1.00012e-17 2307.57) (10000 -0.0908092 2.89888e-18 -0.601554 3.20738e-14 2307.56) (10000 -0.257836 8.88561e-19 -0.25872 1.73714e-17 2307.63));
    }
    down
    {
        type            symmetryPlane;
    }
    up
    {
        type            calculated;
        value           nonuniform List<symmTensor> 10((10000.2 0.000322793 2.13509e-13 1.36424e-12 1.79186e-20 2307.74) (10000.2 0.00160533 2.13509e-13 -2.27374e-12 8.91137e-20 2307.74) (10000.2 0.00287716 -4.27018e-13 3.63798e-12 -3.19429e-19 2307.74) (10000.3 0.004206 -2.69985e-18 4.09273e-12 -2.50666e-19 2307.75) (10000.3 0.00583382 4.27022e-13 -6.36646e-12 6.47684e-19 2307.76) (10000.4 0.00873177 -5.85425e-18 2.27374e-12 -3.38955e-19 2307.78) (10000.5 0.016616 1.06757e-13 -2.72848e-12 4.61187e-19 2307.8) (10000.6 0.0416529 2.13508e-13 -3.63798e-12 2.12001e-18 2307.83) (10000.7 0.112775 -1.06759e-13 7.27596e-12 -3.13012e-18 2307.85) (10000.3 0.269816 -7.11695e-14 -0.00088211 -1.49778e-17 2307.76));
    }
    frontAndBack
    {
        type            empty;
    }
}


// ************************************************************************* //
