/*--------------------------------*- C++ -*----------------------------------*\
  =========                 |
  \\      /  F ield         | OpenFOAM: The Open Source CFD Toolbox
   \\    /   O peration     | Website:  https://openfoam.org
    \\  /    A nd           | Version:  11
     \\/     M anipulation  |
\*---------------------------------------------------------------------------*/
FoamFile
{
    format      ascii;
    class       volScalarField;
    location    "80";
    object      sigmazz;
}
// * * * * * * * * * * * * * * * * * * * * * * * * * * * * * * * * * * * * * //

dimensions      [1 -1 -2 0 0 0 0];

internalField   nonuniform List<scalar> 
100
(
2307.68
2307.68
2307.68
2307.68
2307.67
2307.67
2307.66
2307.66
2307.66
2307.65
2307.68
2307.68
2307.68
2307.68
2307.67
2307.67
2307.66
2307.66
2307.65
2307.65
2307.69
2307.69
2307.68
2307.68
2307.68
2307.67
2307.67
2307.66
2307.65
2307.65
2307.69
2307.69
2307.69
2307.68
2307.68
2307.67
2307.67
2307.66
2307.65
2307.64
2307.7
2307.7
2307.69
2307.69
2307.69
2307.68
2307.67
2307.66
2307.64
2307.63
2307.71
2307.7
2307.7
2307.7
2307.7
2307.69
2307.67
2307.66
2307.63
2307.61
2307.71
2307.71
2307.71
2307.71
2307.71
2307.7
2307.69
2307.66
2307.63
2307.58
2307.72
2307.72
2307.73
2307.73
2307.73
2307.72
2307.71
2307.69
2307.64
2307.54
2307.73
2307.73
2307.74
2307.74
2307.75
2307.75
2307.76
2307.75
2307.69
2307.52
2307.74
2307.74
2307.75
2307.75
2307.77
2307.79
2307.82
2307.86
2307.88
2307.7
)
;

boundaryField
{
    left
    {
        type            symmetryPlane;
    }
    right
    {
        type            calculated;
        value           nonuniform List<scalar> 10(2307.65 2307.65 2307.65 2307.64 2307.63 2307.61 2307.59 2307.57 2307.56 2307.63);
    }
    down
    {
        type            symmetryPlane;
    }
    up
    {
        type            calculated;
        value           nonuniform List<scalar> 10(2307.74 2307.74 2307.74 2307.75 2307.76 2307.78 2307.8 2307.83 2307.85 2307.76);
    }
    frontAndBack
    {
        type            empty;
    }
}


// ************************************************************************* //
