/*--------------------------------*- C++ -*----------------------------------*\
  =========                 |
  \\      /  F ield         | OpenFOAM: The Open Source CFD Toolbox
   \\    /   O peration     | Website:  https://openfoam.org
    \\  /    A nd           | Version:  11
     \\/     M anipulation  |
\*---------------------------------------------------------------------------*/
FoamFile
{
    format      ascii;
    class       volScalarField;
    location    "80";
    object      sigmaxz;
}
// * * * * * * * * * * * * * * * * * * * * * * * * * * * * * * * * * * * * * //

dimensions      [1 -1 -2 0 0 0 0];

internalField   nonuniform List<scalar> 
100
(
0
0
-2.135e-13
1.64221e-19
2.13501e-13
0
0
-2.13504e-13
-2.13505e-13
3.39881e-20
-1.52779e-19
0
0
8.30486e-19
0
0
0
6.23406e-19
5.82082e-19
1.67264e-19
2.135e-13
2.135e-13
0
0
-1.72055e-18
0
2.13503e-13
2.37038e-28
-2.13504e-13
-2.99305e-19
2.13501e-13
2.13501e-13
0
-2.135e-13
8.77025e-28
2.13502e-13
0
1.06751e-13
-2.13505e-13
-1.06753e-13
5.7395e-19
0
1.06751e-13
-3.62962e-18
-1.06746e-13
0
1.06751e-13
1.76102e-18
-1.06754e-13
7.04951e-19
0
0
-2.13503e-13
-1.1975e-17
2.13502e-13
6.71669e-18
1.06751e-13
3.07432e-18
-1.06752e-13
0
0
0
-4.27005e-13
-9.9562e-28
6.40517e-13
4.60689e-18
5.23396e-18
-5.32484e-18
-2.13493e-13
1.10432e-18
-7.48431e-19
2.13506e-13
-2.13506e-13
5.91727e-18
3.20258e-13
-1.06752e-13
-1.06751e-13
1.06751e-13
1.06769e-13
-3.55843e-14
2.13507e-13
2.13508e-13
-2.13511e-13
-4.9978e-18
4.27009e-13
-5.20039e-18
-7.56304e-18
2.13516e-13
-2.13503e-13
-7.11734e-14
2.13509e-13
2.13509e-13
-4.27018e-13
-2.69985e-18
4.27022e-13
-5.85425e-18
1.06757e-13
2.13508e-13
-1.06759e-13
-7.11695e-14
)
;

boundaryField
{
    left
    {
        type            symmetryPlane;
    }
    right
    {
        type            calculated;
        value           nonuniform List<scalar> 10(-1.32672e-20 -6.64564e-20 1.20321e-19 2.93846e-19 -2.49488e-19 0 -3.53286e-19 1.55651e-19 2.89888e-18 8.88561e-19);
    }
    down
    {
        type            symmetryPlane;
    }
    up
    {
        type            calculated;
        value           nonuniform List<scalar> 10(2.13509e-13 2.13509e-13 -4.27018e-13 -2.69985e-18 4.27022e-13 -5.85425e-18 1.06757e-13 2.13508e-13 -1.06759e-13 -7.11695e-14);
    }
    frontAndBack
    {
        type            empty;
    }
}


// ************************************************************************* //
