/*--------------------------------*- C++ -*----------------------------------*\
  =========                 |
  \\      /  F ield         | OpenFOAM: The Open Source CFD Toolbox
   \\    /   O peration     | Website:  https://openfoam.org
    \\  /    A nd           | Version:  11
     \\/     M anipulation  |
\*---------------------------------------------------------------------------*/
FoamFile
{
    format      ascii;
    class       volScalarField;
    location    "80";
    object      sigmaxy;
}
// * * * * * * * * * * * * * * * * * * * * * * * * * * * * * * * * * * * * * //

dimensions      [1 -1 -2 0 0 0 0];

internalField   nonuniform List<scalar> 
100
(
3.26318e-06
-0.00107767
-0.0023266
-0.00398834
-0.00597079
-0.00788617
-0.00911988
-0.0089344
-0.00679792
-0.00184393
0.00119232
0.000280179
-0.00158899
-0.00537241
-0.0110249
-0.0174313
-0.0223971
-0.0232947
-0.0177529
-0.0048618
0.00267912
0.00284431
0.00129694
-0.00381045
-0.0128062
-0.0242293
-0.0344669
-0.0382666
-0.0306497
-0.00881441
0.00472355
0.00772733
0.00827319
0.00362228
-0.00756341
-0.0242795
-0.0421659
-0.0529553
-0.0459695
-0.0136576
0.00720341
0.0148064
0.019687
0.0182698
0.00778856
-0.012754
-0.0400442
-0.0628496
-0.0629979
-0.0206053
0.00967157
0.0228208
0.0338556
0.0390217
0.0342131
0.0149972
-0.0194658
-0.0598697
-0.0777133
-0.0293673
0.0113283
0.029173
0.0463482
0.060329
0.0667089
0.0580091
0.026076
-0.0279763
-0.074759
-0.0417835
0.0112677
0.0303091
0.0505405
0.0715362
0.0908354
0.101803
0.0910307
0.0425384
-0.0348535
-0.0529347
0.0085905
0.0231954
0.0399866
0.0599969
0.084129
0.110923
0.13088
0.118853
0.0488562
-0.0410325
0.00231326
0.00654496
0.0115426
0.0177694
0.0263574
0.0394119
0.0591864
0.0826429
0.0911194
0.0189819
)
;

boundaryField
{
    left
    {
        type            symmetryPlane;
    }
    right
    {
        type            calculated;
        value           nonuniform List<scalar> 10(-0.000239001 -0.00119717 -0.00216752 -0.00322585 -0.00449437 -0.00672187 -0.0127285 -0.0323221 -0.0908092 -0.257836);
    }
    down
    {
        type            symmetryPlane;
    }
    up
    {
        type            calculated;
        value           nonuniform List<scalar> 10(0.000322793 0.00160533 0.00287716 0.004206 0.00583382 0.00873177 0.016616 0.0416529 0.112775 0.269816);
    }
    frontAndBack
    {
        type            empty;
    }
}


// ************************************************************************* //
