/*--------------------------------*- C++ -*----------------------------------*\
  =========                 |
  \\      /  F ield         | OpenFOAM: The Open Source CFD Toolbox
   \\    /   O peration     | Website:  https://openfoam.org
    \\  /    A nd           | Version:  11
     \\/     M anipulation  |
\*---------------------------------------------------------------------------*/
FoamFile
{
    format      ascii;
    class       volScalarField;
    location    "80";
    object      sigmayy;
}
// * * * * * * * * * * * * * * * * * * * * * * * * * * * * * * * * * * * * * //

dimensions      [1 -1 -2 0 0 0 0];

internalField   nonuniform List<scalar> 
100
(
0.143055
0.136457
0.120342
0.0947416
0.0593505
0.0149707
-0.0357367
-0.0879453
-0.134669
-0.168609
0.140439
0.134653
0.120252
0.0968093
0.0632549
0.0194163
-0.0329013
-0.0890677
-0.141375
-0.18124
0.136029
0.131439
0.119837
0.100091
0.0700771
0.0279565
-0.0263387
-0.0891868
-0.151466
-0.199638
0.127577
0.124776
0.117384
0.103615
0.0801326
0.042596
-0.0127555
-0.0852814
-0.164561
-0.230799
0.113919
0.113121
0.110701
0.104739
0.0913568
0.0635944
0.0119065
-0.0706209
-0.177533
-0.278696
0.0942971
0.0952873
0.0974463
0.0997152
0.099139
0.0878583
0.0494196
-0.0364218
-0.179707
-0.350799
0.0697589
0.0717563
0.0765985
0.084735
0.095992
0.104864
0.0939854
0.0255972
-0.151283
-0.450894
0.0432927
0.0453586
0.0501125
0.0593306
0.075915
0.100627
0.125508
0.108111
-0.0658737
-0.571621
0.0198929
0.0214508
0.0241812
0.0304022
0.0433108
0.0695397
0.114578
0.154981
0.0565471
-0.634955
0.00500548
0.00578942
0.00662521
0.00873464
0.0135856
0.0254891
0.0520052
0.0975397
0.109405
-0.193707
)
;

boundaryField
{
    left
    {
        type            symmetryPlane;
    }
    right
    {
        type            calculated;
        value           nonuniform List<scalar> 10(-0.167087 -0.179456 -0.19759 -0.2279 -0.274093 -0.341952 -0.434516 -0.54083 -0.601554 -0.25872);
    }
    down
    {
        type            symmetryPlane;
    }
    up
    {
        type            calculated;
        value           nonuniform List<scalar> 10(1.36424e-12 -2.27374e-12 3.63798e-12 4.09273e-12 -6.36646e-12 2.27374e-12 -2.72848e-12 -3.63798e-12 7.27596e-12 -0.00088211);
    }
    frontAndBack
    {
        type            empty;
    }
}


// ************************************************************************* //
