/*--------------------------------*- C++ -*----------------------------------*\
  =========                 |
  \\      /  F ield         | OpenFOAM: The Open Source CFD Toolbox
   \\    /   O peration     | Website:  https://openfoam.org
    \\  /    A nd           | Version:  11
     \\/     M anipulation  |
\*---------------------------------------------------------------------------*/
FoamFile
{
    format      ascii;
    class       volScalarField;
    location    "80";
    object      sigmaEq;
}
// * * * * * * * * * * * * * * * * * * * * * * * * * * * * * * * * * * * * * //

dimensions      [1 -1 -2 0 0 0 0];

internalField   nonuniform List<scalar> 
100
(
9068.82
9068.83
9068.85
9068.88
9068.92
9068.98
9069.05
9069.12
9069.18
9069.22
9068.83
9068.83
9068.85
9068.88
9068.92
9068.98
9069.04
9069.12
9069.18
9069.23
9068.85
9068.85
9068.86
9068.89
9068.92
9068.97
9069.03
9069.11
9069.19
9069.24
9068.88
9068.88
9068.89
9068.9
9068.92
9068.95
9069.02
9069.1
9069.19
9069.26
9068.93
9068.93
9068.92
9068.92
9068.92
9068.94
9068.98
9069.07
9069.19
9069.3
9068.99
9068.99
9068.98
9068.96
9068.94
9068.93
9068.94
9069.01
9069.16
9069.34
9069.07
9069.06
9069.05
9069.03
9069
9068.96
9068.92
9068.94
9069.1
9069.39
9069.15
9069.15
9069.14
9069.13
9069.1
9069.05
9068.97
9068.9
9068.99
9069.44
9069.22
9069.22
9069.23
9069.24
9069.24
9069.23
9069.17
9069.05
9069
9069.48
9069.27
9069.28
9069.3
9069.32
9069.36
9069.42
9069.5
9069.59
9069.65
9069.44
)
;

boundaryField
{
    left
    {
        type            symmetryPlane;
    }
    right
    {
        type            calculated;
        value           nonuniform List<scalar> 10(9069.22 9069.23 9069.25 9069.27 9069.31 9069.36 9069.43 9069.51 9069.56 9069.3);
    }
    down
    {
        type            symmetryPlane;
    }
    up
    {
        type            calculated;
        value           nonuniform List<scalar> 10(9069.27 9069.28 9069.3 9069.33 9069.37 9069.43 9069.52 9069.63 9069.7 9069.35);
    }
    frontAndBack
    {
        type            empty;
    }
}


// ************************************************************************* //
