/*--------------------------------*- C++ -*----------------------------------*\
  =========                 |
  \\      /  F ield         | OpenFOAM: The Open Source CFD Toolbox
   \\    /   O peration     | Website:  https://openfoam.org
    \\  /    A nd           | Version:  11
     \\/     M anipulation  |
\*---------------------------------------------------------------------------*/
FoamFile
{
    format      ascii;
    class       volScalarField;
    location    "80";
    object      sigmayz;
}
// * * * * * * * * * * * * * * * * * * * * * * * * * * * * * * * * * * * * * //

dimensions      [1 -1 -2 0 0 0 0];

internalField   nonuniform List<scalar> 
100
(
0
0
2.63893e-19
-6.40483e-14
-5.0414e-19
0
0
6.17688e-19
-6.40536e-14
-6.40549e-14
6.40472e-14
0
0
-6.40482e-14
0
0
0
-6.40529e-14
-6.40542e-14
-6.40552e-14
6.40472e-14
-6.56791e-19
0
0
6.40489e-14
0
-3.36765e-18
-7.11167e-29
-3.20244e-14
6.40556e-14
-6.40479e-14
-8.12442e-19
0
-3.20218e-14
-1.33227e-32
-4.16689e-18
0
3.20238e-14
4.27709e-18
3.74392e-18
-6.40483e-14
0
-8.21975e-19
6.40484e-14
-6.40467e-14
0
-3.21673e-18
-3.20261e-14
3.20306e-14
-6.40572e-14
0
0
1.59604e-18
1.60122e-13
-4.04009e-18
-6.40487e-14
-3.96582e-18
-3.20257e-14
4.61408e-18
0
0
0
-6.4047e-14
7.25325e-28
-6.40605e-14
-3.20243e-14
-3.20243e-14
3.20249e-14
-6.40401e-14
-3.20303e-14
6.4051e-14
-6.18365e-19
1.17924e-18
-6.40506e-14
-4.77119e-18
2.6742e-18
4.54082e-18
-7.32271e-18
-6.40617e-14
1.00012e-17
6.40518e-14
-5.8067e-19
6.4053e-14
6.40518e-14
6.40465e-14
3.20256e-14
3.2025e-14
-3.20397e-14
2.83502e-17
3.20738e-14
-3.08912e-20
-1.51639e-19
5.47909e-19
2.13508e-14
-1.20434e-18
2.13508e-14
-7.69285e-19
1.06722e-14
3.8847e-18
1.73714e-17
)
;

boundaryField
{
    left
    {
        type            symmetryPlane;
    }
    right
    {
        type            calculated;
        value           nonuniform List<scalar> 10(-6.40549e-14 -6.40552e-14 6.40556e-14 3.74392e-18 -6.40572e-14 0 -3.20303e-14 1.00012e-17 3.20738e-14 1.73714e-17);
    }
    down
    {
        type            symmetryPlane;
    }
    up
    {
        type            calculated;
        value           nonuniform List<scalar> 10(1.79186e-20 8.91137e-20 -3.19429e-19 -2.50666e-19 6.47684e-19 -3.38955e-19 4.61187e-19 2.12001e-18 -3.13012e-18 -1.49778e-17);
    }
    frontAndBack
    {
        type            empty;
    }
}


// ************************************************************************* //
