#           y
          0.5
     0.515152
     0.530303
     0.545455
     0.560606
     0.575758
     0.590909
     0.606061
     0.621212
     0.636364
     0.651515
     0.666667
     0.681818
      0.69697
     0.712121
     0.727273
     0.742424
     0.757576
     0.772727
     0.787879
      0.80303
     0.818182
     0.833333
     0.848485
     0.863636
     0.878788
     0.893939
     0.909091
     0.924242
     0.939394
     0.954545
     0.969697
     0.984848
            1