#           y       sigmaxx
          0.5       9999.83
     0.515152       9999.86
     0.530303       9999.89
     0.545455       9999.91
     0.560606       9999.94
     0.575758       9999.96
     0.590909       9999.99
     0.606061         10000
     0.621212         10000
     0.636364       10000.1
     0.651515       10000.1
     0.666667       10000.1
     0.681818       10000.2
      0.69697       10000.2
     0.712121       10000.2
     0.727273       10000.2
     0.742424       10000.3
     0.757576       10000.3
     0.772727       10000.3
     0.787879       10000.3
      0.80303       10000.4
     0.818182       10000.4
     0.833333       10000.4
     0.848485       10000.4
     0.863636       10000.4
     0.878788       10000.5
     0.893939       10000.5
     0.909091       10000.5
     0.924242       10000.5
     0.939394       10000.5
     0.954545       10000.6
     0.969697       10000.6
     0.984848       10000.6
            1       10000.6